# vtk DataFile Version 3.0
#This file was generated by the deal.II library on 2023/11/17 at 11:32:39
ASCII
DATASET UNSTRUCTURED_GRID

POINTS 3708 double
1 0 0
0.965926 0.258819 0
0.8 0 0
0.772741 0.207055 0
0.965926 0.258819 0
0.866025 0.5 0
0.772741 0.207055 0
0.69282 0.4 0
0.866025 0.5 0
0.707107 0.707107 0
0.69282 0.4 0
0.565685 0.565685 0
0.707107 0.707107 0
0.5 0.866025 0
0.565685 0.565685 0
0.4 0.69282 0
0.5 0.866025 0
0.258819 0.965926 0
0.4 0.69282 0
0.207055 0.772741 0
0.258819 0.965926 0
3.88578e-16 1 0
0.207055 0.772741 0
3.45885e-16 0.8 0
3.88578e-16 1 0
-0.258819 0.965926 0
3.45885e-16 0.8 0
-0.207055 0.772741 0
-0.258819 0.965926 0
-0.5 0.866025 0
-0.207055 0.772741 0
-0.4 0.69282 0
-0.5 0.866025 0
-0.707107 0.707107 0
-0.4 0.69282 0
-0.565685 0.565685 0
-0.707107 0.707107 0
-0.866025 0.5 0
-0.565685 0.565685 0
-0.69282 0.4 0
-0.866025 0.5 0
-0.965926 0.258819 0
-0.69282 0.4 0
-0.772741 0.207055 0
-0.965926 0.258819 0
-1 1.22465e-16 0
-0.772741 0.207055 0
-0.8 9.79717e-17 0
-1 1.22465e-16 0
-0.965926 -0.258819 0
-0.8 9.79717e-17 0
-0.772741 -0.207055 0
-0.965926 -0.258819 0
-0.866025 -0.5 0
-0.772741 -0.207055 0
-0.69282 -0.4 0
-0.866025 -0.5 0
-0.707107 -0.707107 0
-0.69282 -0.4 0
-0.565685 -0.565685 0
-0.707107 -0.707107 0
-0.5 -0.866025 0
-0.565685 -0.565685 0
-0.4 -0.69282 0
-0.5 -0.866025 0
-0.258819 -0.965926 0
-0.4 -0.69282 0
-0.207055 -0.772741 0
-0.258819 -0.965926 0
-1.66533e-16 -1 0
-0.207055 -0.772741 0
-1.38376e-16 -0.8 0
-1.66533e-16 -1 0
0.258819 -0.965926 0
-1.38376e-16 -0.8 0
0.207055 -0.772741 0
0.258819 -0.965926 0
0.5 -0.866025 0
0.207055 -0.772741 0
0.4 -0.69282 0
0.5 -0.866025 0
0.707107 -0.707107 0
0.4 -0.69282 0
0.565685 -0.565685 0
0.707107 -0.707107 0
0.866025 -0.5 0
0.565685 -0.565685 0
0.69282 -0.4 0
0.866025 -0.5 0
0.965926 -0.258819 0
0.69282 -0.4 0
0.772741 -0.207055 0
0.965926 -0.258819 0
1 0 0
0.772741 -0.207055 0
0.8 0 0
0.8 0 0
0.793156 0.104421 0
0.7 0 0
0.694011 0.0913683 0
0.793156 0.104421 0
0.772741 0.207055 0
0.694011 0.0913683 0
0.676148 0.181173 0
0.7 0 0
0.694011 0.0913683 0
0.6 0 0
0.594867 0.0783157 0
0.694011 0.0913683 0
0.676148 0.181173 0
0.594867 0.0783157 0
0.579555 0.155291 0
0.772741 0.207055 0
0.739104 0.306147 0
0.676148 0.181173 0
0.646716 0.267878 0
0.739104 0.306147 0
0.69282 0.4 0
0.646716 0.267878 0
0.606218 0.35 0
0.676148 0.181173 0
0.646716 0.267878 0
0.579555 0.155291 0
0.554328 0.22961 0
0.646716 0.267878 0
0.606218 0.35 0
0.554328 0.22961 0
0.519615 0.3 0
0.69282 0.4 0
0.634683 0.487009 0
0.606218 0.35 0
0.555347 0.426133 0
0.634683 0.487009 0
0.565685 0.565685 0
0.555347 0.426133 0
0.494975 0.494975 0
0.606218 0.35 0
0.555347 0.426133 0
0.519615 0.3 0
0.476012 0.365257 0
0.555347 0.426133 0
0.494975 0.494975 0
0.476012 0.365257 0
0.424264 0.424264 0
0.565685 0.565685 0
0.487009 0.634683 0
0.494975 0.494975 0
0.426133 0.555347 0
0.487009 0.634683 0
0.4 0.69282 0
0.426133 0.555347 0
0.35 0.606218 0
0.494975 0.494975 0
0.426133 0.555347 0
0.424264 0.424264 0
0.365257 0.476012 0
0.426133 0.555347 0
0.35 0.606218 0
0.365257 0.476012 0
0.3 0.519615 0
0.4 0.69282 0
0.306147 0.739104 0
0.35 0.606218 0
0.267878 0.646716 0
0.306147 0.739104 0
0.207055 0.772741 0
0.267878 0.646716 0
0.181173 0.676148 0
0.35 0.606218 0
0.267878 0.646716 0
0.3 0.519615 0
0.22961 0.554328 0
0.267878 0.646716 0
0.181173 0.676148 0
0.22961 0.554328 0
0.155291 0.579555 0
0.207055 0.772741 0
0.104421 0.793156 0
0.181173 0.676148 0
0.0913683 0.694011 0
0.104421 0.793156 0
3.45885e-16 0.8 0
0.0913683 0.694011 0
3.24539e-16 0.7 0
0.181173 0.676148 0
0.0913683 0.694011 0
0.155291 0.579555 0
0.0783157 0.594867 0
0.0913683 0.694011 0
3.24539e-16 0.7 0
0.0783157 0.594867 0
3.03193e-16 0.6 0
3.45885e-16 0.8 0
-0.104421 0.793156 0
3.24539e-16 0.7 0
-0.0913683 0.694011 0
-0.104421 0.793156 0
-0.207055 0.772741 0
-0.0913683 0.694011 0
-0.181173 0.676148 0
3.24539e-16 0.7 0
-0.0913683 0.694011 0
3.03193e-16 0.6 0
-0.0783157 0.594867 0
-0.0913683 0.694011 0
-0.181173 0.676148 0
-0.0783157 0.594867 0
-0.155291 0.579555 0
-0.207055 0.772741 0
-0.306147 0.739104 0
-0.181173 0.676148 0
-0.267878 0.646716 0
-0.306147 0.739104 0
-0.4 0.69282 0
-0.267878 0.646716 0
-0.35 0.606218 0
-0.181173 0.676148 0
-0.267878 0.646716 0
-0.155291 0.579555 0
-0.22961 0.554328 0
-0.267878 0.646716 0
-0.35 0.606218 0
-0.22961 0.554328 0
-0.3 0.519615 0
-0.4 0.69282 0
-0.487009 0.634683 0
-0.35 0.606218 0
-0.426133 0.555347 0
-0.487009 0.634683 0
-0.565685 0.565685 0
-0.426133 0.555347 0
-0.494975 0.494975 0
-0.35 0.606218 0
-0.426133 0.555347 0
-0.3 0.519615 0
-0.365257 0.476012 0
-0.426133 0.555347 0
-0.494975 0.494975 0
-0.365257 0.476012 0
-0.424264 0.424264 0
-0.565685 0.565685 0
-0.634683 0.487009 0
-0.494975 0.494975 0
-0.555347 0.426133 0
-0.634683 0.487009 0
-0.69282 0.4 0
-0.555347 0.426133 0
-0.606218 0.35 0
-0.494975 0.494975 0
-0.555347 0.426133 0
-0.424264 0.424264 0
-0.476012 0.365257 0
-0.555347 0.426133 0
-0.606218 0.35 0
-0.476012 0.365257 0
-0.519615 0.3 0
-0.69282 0.4 0
-0.739104 0.306147 0
-0.606218 0.35 0
-0.646716 0.267878 0
-0.739104 0.306147 0
-0.772741 0.207055 0
-0.646716 0.267878 0
-0.676148 0.181173 0
-0.606218 0.35 0
-0.646716 0.267878 0
-0.519615 0.3 0
-0.554328 0.22961 0
-0.646716 0.267878 0
-0.676148 0.181173 0
-0.554328 0.22961 0
-0.579555 0.155291 0
-0.772741 0.207055 0
-0.793156 0.104421 0
-0.676148 0.181173 0
-0.694011 0.0913683 0
-0.793156 0.104421 0
-0.8 9.79717e-17 0
-0.694011 0.0913683 0
-0.7 8.57253e-17 0
-0.676148 0.181173 0
-0.694011 0.0913683 0
-0.579555 0.155291 0
-0.594867 0.0783157 0
-0.694011 0.0913683 0
-0.7 8.57253e-17 0
-0.594867 0.0783157 0
-0.6 7.34788e-17 0
-0.8 9.79717e-17 0
-0.793156 -0.104421 0
-0.7 8.57253e-17 0
-0.694011 -0.0913683 0
-0.793156 -0.104421 0
-0.772741 -0.207055 0
-0.694011 -0.0913683 0
-0.676148 -0.181173 0
-0.7 8.57253e-17 0
-0.694011 -0.0913683 0
-0.6 7.34788e-17 0
-0.594867 -0.0783157 0
-0.694011 -0.0913683 0
-0.676148 -0.181173 0
-0.594867 -0.0783157 0
-0.579555 -0.155291 0
-0.772741 -0.207055 0
-0.739104 -0.306147 0
-0.676148 -0.181173 0
-0.646716 -0.267878 0
-0.739104 -0.306147 0
-0.69282 -0.4 0
-0.646716 -0.267878 0
-0.606218 -0.35 0
-0.676148 -0.181173 0
-0.646716 -0.267878 0
-0.579555 -0.155291 0
-0.554328 -0.22961 0
-0.646716 -0.267878 0
-0.606218 -0.35 0
-0.554328 -0.22961 0
-0.519615 -0.3 0
-0.69282 -0.4 0
-0.634683 -0.487009 0
-0.606218 -0.35 0
-0.555347 -0.426133 0
-0.634683 -0.487009 0
-0.565685 -0.565685 0
-0.555347 -0.426133 0
-0.494975 -0.494975 0
-0.606218 -0.35 0
-0.555347 -0.426133 0
-0.519615 -0.3 0
-0.476012 -0.365257 0
-0.555347 -0.426133 0
-0.494975 -0.494975 0
-0.476012 -0.365257 0
-0.424264 -0.424264 0
-0.565685 -0.565685 0
-0.487009 -0.634683 0
-0.494975 -0.494975 0
-0.426133 -0.555347 0
-0.487009 -0.634683 0
-0.4 -0.69282 0
-0.426133 -0.555347 0
-0.35 -0.606218 0
-0.494975 -0.494975 0
-0.426133 -0.555347 0
-0.424264 -0.424264 0
-0.365257 -0.476012 0
-0.426133 -0.555347 0
-0.35 -0.606218 0
-0.365257 -0.476012 0
-0.3 -0.519615 0
-0.4 -0.69282 0
-0.306147 -0.739104 0
-0.35 -0.606218 0
-0.267878 -0.646716 0
-0.306147 -0.739104 0
-0.207055 -0.772741 0
-0.267878 -0.646716 0
-0.181173 -0.676148 0
-0.35 -0.606218 0
-0.267878 -0.646716 0
-0.3 -0.519615 0
-0.22961 -0.554328 0
-0.267878 -0.646716 0
-0.181173 -0.676148 0
-0.22961 -0.554328 0
-0.155291 -0.579555 0
-0.207055 -0.772741 0
-0.104421 -0.793156 0
-0.181173 -0.676148 0
-0.0913683 -0.694011 0
-0.104421 -0.793156 0
-1.38376e-16 -0.8 0
-0.0913683 -0.694011 0
-1.24297e-16 -0.7 0
-0.181173 -0.676148 0
-0.0913683 -0.694011 0
-0.155291 -0.579555 0
-0.0783157 -0.594867 0
-0.0913683 -0.694011 0
-1.24297e-16 -0.7 0
-0.0783157 -0.594867 0
-1.10218e-16 -0.6 0
-1.38376e-16 -0.8 0
0.104421 -0.793156 0
-1.24297e-16 -0.7 0
0.0913683 -0.694011 0
0.104421 -0.793156 0
0.207055 -0.772741 0
0.0913683 -0.694011 0
0.181173 -0.676148 0
-1.24297e-16 -0.7 0
0.0913683 -0.694011 0
-1.10218e-16 -0.6 0
0.0783157 -0.594867 0
0.0913683 -0.694011 0
0.181173 -0.676148 0
0.0783157 -0.594867 0
0.155291 -0.579555 0
0.207055 -0.772741 0
0.306147 -0.739104 0
0.181173 -0.676148 0
0.267878 -0.646716 0
0.306147 -0.739104 0
0.4 -0.69282 0
0.267878 -0.646716 0
0.35 -0.606218 0
0.181173 -0.676148 0
0.267878 -0.646716 0
0.155291 -0.579555 0
0.22961 -0.554328 0
0.267878 -0.646716 0
0.35 -0.606218 0
0.22961 -0.554328 0
0.3 -0.519615 0
0.4 -0.69282 0
0.487009 -0.634683 0
0.35 -0.606218 0
0.426133 -0.555347 0
0.487009 -0.634683 0
0.565685 -0.565685 0
0.426133 -0.555347 0
0.494975 -0.494975 0
0.35 -0.606218 0
0.426133 -0.555347 0
0.3 -0.519615 0
0.365257 -0.476012 0
0.426133 -0.555347 0
0.494975 -0.494975 0
0.365257 -0.476012 0
0.424264 -0.424264 0
0.565685 -0.565685 0
0.634683 -0.487009 0
0.494975 -0.494975 0
0.555347 -0.426133 0
0.634683 -0.487009 0
0.69282 -0.4 0
0.555347 -0.426133 0
0.606218 -0.35 0
0.494975 -0.494975 0
0.555347 -0.426133 0
0.424264 -0.424264 0
0.476012 -0.365257 0
0.555347 -0.426133 0
0.606218 -0.35 0
0.476012 -0.365257 0
0.519615 -0.3 0
0.69282 -0.4 0
0.739104 -0.306147 0
0.606218 -0.35 0
0.646716 -0.267878 0
0.739104 -0.306147 0
0.772741 -0.207055 0
0.646716 -0.267878 0
0.676148 -0.181173 0
0.606218 -0.35 0
0.646716 -0.267878 0
0.519615 -0.3 0
0.554328 -0.22961 0
0.646716 -0.267878 0
0.676148 -0.181173 0
0.554328 -0.22961 0
0.579555 -0.155291 0
0.38637 0.103528 0
0.369552 0.153073 0
0.289778 0.0776457 0
0.277164 0.114805 0
0.369552 0.153073 0
0.34641 0.2 0
0.277164 0.114805 0
0.259808 0.15 0
0.289778 0.0776457 0
0.277164 0.114805 0
0.193185 0.0517638 0
0.184776 0.0765367 0
0.277164 0.114805 0
0.259808 0.15 0
0.184776 0.0765367 0
0.173205 0.1 0
0.34641 0.2 0
0.317341 0.243505 0
0.259808 0.15 0
0.238006 0.182628 0
0.317341 0.243505 0
0.282843 0.282843 0
0.238006 0.182628 0
0.212132 0.212132 0
0.259808 0.15 0
0.238006 0.182628 0
0.173205 0.1 0
0.158671 0.121752 0
0.238006 0.182628 0
0.212132 0.212132 0
0.158671 0.121752 0
0.141421 0.141421 0
0.282843 0.282843 0
0.243505 0.317341 0
0.212132 0.212132 0
0.182628 0.238006 0
0.243505 0.317341 0
0.2 0.34641 0
0.182628 0.238006 0
[...]
POINT_DATA 3708
SCALARS solution double 1
LOOKUP_TABLE default
0 0 0.0032174 0.00321742 0 0 0.00321742 0.00321746 0 0 0.00321746 0.00321747 0 0 0.00321747 0.00321747 0 0 0.00321747 0.00321747 0 0 0.00321747 0.00321747 0 0 0.00321747 0.00321747 0 0 0.00321747 0.00321747 0 0 0.00321747 0.00321747 0 0 0.00321747 0.00321746 0 0 0.00321746 0.00321746 0 0 0.00321746 0.00321746 0 0 0.00321746 0.00321746 0 0 0.00321746 0.00321746 0 0 0.00321746 0.00321746 0 0 0.00321746 0.00321746 0 0 0.00321746 0.00321746 0 0 0.00321746 0.00321746 0 0 0.00321746 0.00321743 0 0 0.00321743 0.00321741 0 0 0.00321741 0.0032174 0 0 0.0032174 0.00321741 0 0 0.00321741 0.00321741 0 0 0.00321741 0.0032174 0.0032174 0.0032443 0.0035538 0.0035551 0.0032443 0.00321742 0.0035551 0.00355381 0.0035538 0.0035551 0.00285037 0.00285041 0.0035551 0.00355381 0.00285041 0.00285031 0.00321742 0.00324433 0.00355381 0.00355515 0.00324433 0.00321746 0.00355515 0.00355389 0.00355381 0.00355515 0.00285031 0.00285047 0.00355515 0.00355389 0.00285047 0.00285053 0.00321746 0.00324436 0.00355389 0.00355521 0.00324436 0.00321747 0.00355521 0.00355391 0.00355389 0.00355521 0.00285053 0.00285056 0.00355521 0.00355391 0.00285056 0.00285049 0.00321747 0.00324436 0.00355391 0.00355521 0.00324436 0.00321747 0.00355521 0.00355391 0.00355391 0.00355521 0.00285049 0.00285054 0.00355521 0.00355391 0.00285054 0.00285048 0.00321747 0.00324436 0.00355391 0.00355521 0.00324436 0.00321747 0.00355521 0.0035539 0.00355391 0.00355521 0.00285048 0.00285054 0.00355521 0.0035539 0.00285054 0.00285048 0.00321747 0.00324436 0.0035539 0.00355521 0.00324436 0.00321747 0.00355521 0.0035539 0.0035539 0.00355521 0.00285048 0.00285054 0.00355521 0.0035539 0.00285054 0.00285048 0.00321747 0.00324436 0.0035539 0.00355521 0.00324436 0.00321747 0.00355521 0.0035539 0.0035539 0.00355521 0.00285048 0.00285054 0.00355521 0.0035539 0.00285054 0.00285048 0.00321747 0.00324436 0.0035539 0.00355521 0.00324436 0.00321747 0.00355521 0.0035539 0.0035539 0.00355521 0.00285048 0.00285054 0.00355521 0.0035539 0.00285054 0.00285047 0.00321747 0.00324436 0.0035539 0.0035552 0.00324436 0.00321747 0.0035552 0.00355389 0.0035539 0.0035552 0.00285047 0.00285053 0.0035552 0.00355389 0.00285053 0.00285046 0.00321747 0.00324435 0.00355389 0.0035552 0.00324435 0.00321746 0.0035552 0.00355389 0.00355389 0.0035552 0.00285046 0.00285052 0.0035552 0.00355389 0.00285052 0.00285046 0.00321746 0.00324435 0.00355389 0.00355519 0.00324435 0.00321746 0.00355519 0.00355389 0.00355389 0.00355519 0.00285046 0.00285052 0.00355519 0.00355389 0.00285052 0.00285046 0.00321746 0.00324435 0.00355389 0.00355519 0.00324435 0.00321746 0.00355519 0.00355389 0.00355389 0.00355519 0.00285046 0.00285052 0.00355519 0.00355389 0.00285052 0.00285046 0.00321746 0.00324435 0.00355389 0.00355519 0.00324435 0.00321746 0.00355519 0.00355389 0.00355389 0.00355519 0.00285046 0.00285052 0.00355519 0.00355389 0.00285052 0.00285046 0.00321746 0.00324435 0.00355389 0.00355519 0.00324435 0.00321746 0.00355519 0.00355389 0.00355389 0.00355519 0.00285046 0.00285052 0.00355519 0.00355389 0.00285052 0.00285045 0.00321746 0.00324435 0.00355389 0.00355519 0.00324435 0.00321746 0.00355519 0.00355388 0.00355389 0.00355519 0.00285045 0.00285051 0.00355519 0.00355388 0.00285051 0.00285044 0.00321746 0.00324435 0.00355388 0.00355518 0.00324435 0.00321746 0.00355518 0.00355388 0.00355388 0.00355518 0.00285044 0.0028505 0.00355518 0.00355388 0.0028505 0.00285044 0.00321746 0.00324435 0.00355388 0.00355518 0.00324435 0.00321746 0.00355518 0.00355388 0.00355388 0.00355518 0.00285044 0.0028505 0.00355518 0.00355388 0.0028505 0.00285044 0.00321746 0.00324435 0.00355388 0.00355519 0.00324435 0.00321746 0.00355519 0.00355389 0.00355388 0.00355519 0.00285044 0.00285051 0.00355519 0.00355389 0.00285051 0.00285047 0.00321746 0.00324434 0.00355389 0.00355518 0.00324434 0.00321743 0.00355518 0.00355384 0.00355389 0.00355518 0.00285047 0.00285056 0.00355518 0.00355384 0.00285056 0.0028504 0.00321743 0.0032443 0.00355384 0.00355511 0.0032443 0.00321741 0.00355511 0.00355379 0.00355384 0.00355511 0.0028504 0.00285037 0.00355511 0.00355379 0.00285037 0.00285035 0.00321741 0.00324429 0.00355379 0.0035551 0.00324429 0.0032174 0.0035551 0.0035538 0.00355379 0.0035551 0.00285035 0.00285043 0.0035551 0.0035538 0.00285043 0.00285037 0.0032174 0.00324429 0.0035538 0.00355511 0.00324429 0.00321741 0.00355511 0.0035538 0.0035538 0.00355511 0.00285037 0.00285044 0.00355511 0.0035538 0.00285044 0.00285038 0.00321741 0.00324429 0.0035538 0.00355511 0.00324429 0.00321741 0.00355511 0.0035538 0.0035538 0.00355511 0.00285038 0.00285044 0.00355511 0.0035538 0.00285044 0.00285038 0.000739868 0.000739885 0.000458583 0.00045859 0.000739885 0.000739911 0.00045859 0.000458597 0.000458583 0.00045859 0 0 0.00045859 0.000458597 0 0 0.000739911 0.000739923 0.000458597 0.000458604 0.000739923 0.000739926 0.000458604 0.000458608 0.000458597 0.000458604 0 0 0.000458604 0.000458608 0 0 0.000739926 0.000739927 0.000458608 0.000458611 0.000739927 0.000739927 0.000458611 0.000458612 0.000458608 0.000458611 0 0 0.000458611 0.000458612 0 0 0.000739927 0.000739928 0.000458612 0.000458613 0.000739928 0.000739928 0.000458613 0.000458614 0.000458612 0.000458613 0 0 0.000458613 0.000458614 0 0 0.000739928 0.000739928 0.000458614 0.000458614 0.000739928 0.000739929 0.000458614 0.000458614 0.000458614 0.000458614 0 0 0.000458614 0.000458614 0 0 0.000739929 0.000739929 0.000458614 0.000458614 0.000739929 0.000739929 0.000458614 0.000458614 0.000458614 0.000458614 0 0 0.000458614 0.000458614 0 0 0.000739929 0.000739929 0.000458614 0.000458613 0.000739929 0.000739928 0.000458613 0.000458611 0.000458614 0.000458613 0 0 0.000458613 0.000458611 0 0 0.000739928 0.000739921 0.000458611 0.000458609 0.000739921 0.000739911 0.000458609 0.000458607 0.000458611 0.000458609 0 0 0.000458609 0.000458607 0 0 0.000739911 0.000739914 0.000458607 0.000458606 0.000739914 0.00073991 0.000458606 0.000458605 0.000458607 0.000458606 0 0 0.000458606 0.000458605 0 0 0.00073991 0.000739914 0.000458605 0.000458604 0.000739914 0.000739911 0.000458604 0.000458604 0.000458605 0.000458604 0 0 0.000458604 0.000458604 0 0 0.000739911 0.000739914 0.000458604 0.000458604 0.000739914 0.000739911 0.000458604 0.000458603 0.000458604 0.000458604 0 0 0.000458604 0.000458603 0 0 0.000739911 0.000739914 0.000458603 0.000458603 0.000739914 0.00073991 0.000458603 0.000458602 0.000458603 0.000458603 0 0 0.000458603 0.000458602 0 0 0.00073991 0.000739913 0.000458602 0.000458601 0.000739913 0.000739908 0.000458601 0.000458599 0.000458602 0.000458601 0 0 0.000458601 0.000458599 0 0 0.000739908 0.000739904 0.000458599 0.000458597 0.000739904 0.000739896 0.000458597 0.000458595 0.000458599 0.000458597 0 0 0.000458597 0.000458595 0 0 0.000739896 0.000739894 0.000458595 0.000458593 0.000739894 0.000739893 0.000458593 0.000458592 0.000458595 0.000458593 0 0 0.000458593 0.000458592 0 0 0.000739893 0.000739893 0.000458592 0.000458591 0.000739893 0.000739892 0.000458591 0.00045859 0.000458592 0.000458591 0 0 0.000458591 0.00045859 0 0 0.000739892 0.000739892 0.00045859 0.000458588 0.000739892 0.00073989 0.000458588 0.000458586 0.00045859 0.000458588 0 0 0.000458588 0.000458586 0 0 0.00073989 0.000739885 0.000458586 0.000458584 0.000739885 0.000739876 0.000458584 0.000458581 0.000458586 0.000458584 0 0 0.000458584 0.000458581 0 0 0.00321741 0.00324429 0.0035538 0.0035551 0.00324429 0.0032174 0.0035551 0.0035538 0.0035538 0.0035551 0.00285038 0.00285043 0.0035551 0.0035538 0.00285043 0.00285037 0.000739861 0.000739862 0.000458575 0.000458578 0.000739862 0.000739868 0.000458578 0.000458583 0.000458575 0.000458578 0 0 0.000458578 0.000458583 0 0 0.000739876 0.000739867 0.000458581 0.000458577 0.000739867 0.000739862 0.000458577 0.000458575 0.000458581 0.000458577 0 0 0.000458577 0.000458575 0 0 0.000739862 0.000739861 0.000458575 0.000458573 0.000739861 0.00073986 0.000458573 0.000458572 0.000458575 0.000458573 0 0 0.000458573 0.000458572 0 0 0.00073986 0.00073986 0.000458572 0.000458571 0.00073986 0.000739859 0.000458571 0.000458571 0.000458572 0.000458571 0 0 0.000458571 0.000458571 0 0 0.000739859 0.000739859 0.000458571 0.000458571 0.000739859 0.00073986 0.000458571 0.000458572 0.000458571 0.000458571 0 0 0.000458571 0.000458572 0 0 0.00073986 0.00073986 0.000458572 0.000458573 0.00073986 0.000739861 0.000458573 0.000458575 0.000458572 0.000458573 0 0 0.000458573 0.000458575 0 0 0.00285047 0.00284061 0.00205013 0.00204979 0.00284061 0.00285053 0.00204979 0.00205011 0.000913313 0.000913223 0.000837416 0.000837333 0.000837416 0.000837333 0.000739885 0.000738694 0.000837333 0.000837414 0.000738694 0.000739911 0.00285053 0.00284062 0.00205011 0.00204957 0.00284062 0.00285056 0.00204957 0.00205003 0.00285056 0.00284059 0.00205003 0.00204953 0.00284059 0.00285049 0.00204953 0.00205 0.000837414 0.000837325 0.000739911 0.00073872 0.000837325 0.000837406 0.00073872 0.000739923 0.000837406 0.000837318 0.000739923 0.000738726 0.000837318 0.000837402 0.000738726 0.000739926 0.00285049 0.00284058 0.00205 0.00204952 0.00284058 0.00285054 0.00204952 0.00205 0.00285054 0.00284058 0.00205 0.00204952 0.00284058 0.00285048 0.00204952 0.00204999 0.000837402 0.000837316 0.000739926 0.000738728 0.000837316 0.0008374 0.000738728 0.000739927 0.0008374 0.000837315 0.000739927 0.000738728 0.000837315 0.0008374 0.000738728 0.000739927 0.00285048 0.00284058 0.00204999 0.00204951 0.00284058 0.00285054 0.00204951 0.00205 0.00285054 0.00284058 0.00205 0.00204951 0.00284058 0.00285048 0.00204951 0.00204999 0.0008374 0.000837314 0.000739927 0.000738729 0.000837314 0.0008374 0.000738729 0.000739928 0.0008374 0.000837315 0.000739928 0.000738729 0.000837315 0.0008374 0.000738729 0.000739928 0.00285048 0.00284058 0.00204999 0.00204951 0.00284058 0.00285054 0.00204951 0.00205 0.00285054 0.00284058 0.00205 0.00204951 0.00284058 0.00285048 0.00204951 0.00204999 0.0008374 0.000837315 0.000739928 0.000738729 0.000837315 0.0008374 0.000738729 0.000739928 0.0008374 0.000837315 0.000739928 0.00073873 0.000837315 0.000837401 0.00073873 0.000739929 0.00285048 0.00284058 0.00204999 0.00204951 0.00284058 0.00285054 0.00204951 0.00205 0.00285054 0.00284058 0.00205 0.00204951 0.00284058 0.00285048 0.00204951 0.00204999 0.000837401 0.000837315 0.000739929 0.00073873 0.000837315 0.000837401 0.00073873 0.000739929 0.000837401 0.000837316 0.000739929 0.00073873 0.000837316 0.000837402 0.00073873 0.000739929 0.00285048 0.00284058 0.00204999 0.00204951 0.00284058 0.00285054 0.00204951 0.00205 0.00285054 0.00284058 0.00205 0.00204952 0.00284058 0.00285047 0.00204952 0.00204999 0.000837402 0.000837317 0.000739929 0.00073873 0.000837317 0.000837403 0.00073873 0.000739929 0.000837403 0.000837319 0.000739929 0.00073873 0.000837319 0.000837406 0.00073873 0.000739928 0.00285047 0.00284057 0.00204999 0.00204951 0.00284057 0.00285053 0.00204951 0.00204999 0.00285053 0.00284056 0.00204999 0.00204949 0.00284056 0.00285046 0.00204949 0.00204995 0.000837406 0.000837323 0.000739928 0.000738727 0.000837323 0.000837413 0.000738727 0.000739921 0.000913184 0.0009132 0.000837334 0.000837414 0.000837413 0.000837334 0.000739921 0.000738711 0.000837334 0.000837414 0.000738711 0.000739911 0.00285046 0.00284056 0.00204995 0.00204949 0.00284056 0.00285052 0.00204949 0.00204998 0.00285052 0.00284056 0.00204998 0.00204949 0.00284056 0.00285046 0.00204949 0.00204995 0.0009132 0.000913194 0.000837414 0.000837338 0.000837414 0.000837338 0.000739911 0.000738708 0.000837338 0.000837422 0.000738708 0.000739914 0.000913197 0.000913207 0.00083734 0.000837418 0.000837422 0.00083734 0.000739914 0.000738708 0.00083734 0.000837418 0.000738708 0.00073991 0.00285046 0.00284056 0.00204995 0.00204949 0.00284056 0.00285052 0.00204949 0.00204998 0.00285052 0.00284056 0.00204998 0.00204949 0.00284056 0.00285046 0.00204949 0.00204995 0.000913207 0.000913198 0.000837418 0.000837341 0.000837418 0.000837341 0.00073991 0.000738708 0.000837341 0.000837424 0.000738708 0.000739914 0.000913199 0.000913208 0.000837341 0.000837419 0.000837424 0.000837341 0.000739914 0.000738708 0.000837341 0.000837419 0.000738708 0.000739911 0.00285046 0.00284056 0.00204995 0.00204949 0.00284056 0.00285052 0.00204949 0.00204999 0.00285052 0.00284056 0.00204999 0.00204949 0.00284056 0.00285046 0.00204949 0.00204996 0.000913208 0.000913199 0.000837419 0.000837341 0.000837419 0.000837341 0.000739911 0.000738708 0.000837341 0.000837424 0.000738708 0.000739914 0.000913199 0.000913208 0.000837341 0.00083742 0.000837424 0.000837341 0.000739914 0.000738708 0.000837341 0.00083742 0.000738708 0.000739911 0.00285046 0.00284056 0.00204996 0.00204949 0.00284056 0.00285052 0.00204949 0.00204999 0.00285052 0.00284056 0.00204999 0.00204949 0.00284056 0.00285046 0.00204949 0.00204996 0.000913208 0.000913199 0.00083742 0.000837342 0.00083742 0.000837342 0.000739911 0.000738708 0.000837342 0.000837425 0.000738708 0.000739914 0.0009132 0.00091321 0.000837342 0.00083742 0.000837425 0.000837342 0.000739914 0.000738708 0.000837342 0.00083742 0.000738708 0.00073991 0.00285046 0.00284056 0.00204996 0.00204949 0.00284056 0.00285052 0.00204949 0.00204999 0.00285052 0.00284056 0.00204999 0.00204949 0.00284056 0.00285045 0.00204949 0.00204996 0.00091321 0.000913201 0.00083742 0.000837343 0.00083742 0.000837343 0.00073991 0.000738708 0.000837343 0.000837427 0.000738708 0.000739913 0.000913205 0.00091322 0.000837345 0.000837425 0.000837427 0.000837345 0.000739913 0.000738707 0.000837345 0.000837425 0.000738707 0.000739908 0.00285045 0.00284055 0.00204996 0.00204949 0.00284055 0.00285051 0.00204949 0.00204997 0.00285051 0.00284054 0.00204997 0.00204947 0.00284054 0.00285044 0.00204947 0.00204994 0.00091322 0.000913221 0.000837425 0.00083735 0.000837425 0.00083735 0.000739908 0.000738701 0.00083735 0.000837432 0.000738701 0.000739904 0.000913238 0.000913234 0.000837432 0.000837354 0.000913234 0.000913253 0.000837354 0.000837436 0.000837432 0.000837354 0.000739904 0.000738692 0.000837354 0.000837436 0.000738692 0.000739896 0.00285044 0.00284054 0.00204994 0.00204947 0.00284054 0.0028505 0.00204947 0.00204995 0.0028505 0.00284054 0.00204995 0.00204947 0.00284054 0.00285044 0.00204947 0.00204994 0.000913253 0.000913249 0.000837436 0.000837358 0.000913249 0.00091326 0.000837358 0.000837439 0.000837436 0.000837358 0.000739896 0.000738686 0.000837358 0.000837439 0.000738686 0.000739894 0.00091326 0.000913253 0.000837439 0.00083736 0.000913253 0.000913262 0.00083736 0.00083744 0.000837439 0.00083736 0.000739894 0.000738684 0.00083736 0.00083744 0.000738684 0.000739893 0.00285044 0.00284054 0.00204994 0.00204947 0.00284054 0.0028505 0.00204947 0.00204995 0.0028505 0.00284054 0.00204995 0.00204947 0.00284054 0.00285044 0.00204947 0.00204995 0.000913262 0.000913254 0.00083744 0.000837361 0.000913254 0.000913263 0.000837361 0.000837441 0.00083744 0.000837361 0.000739893 0.000738684 0.000837361 0.000837441 0.000738684 0.000739893 0.000913263 0.000913254 0.000837441 0.000837361 0.000913254 0.000913263 0.000837361 0.000837441 0.000837441 0.000837361 0.000739893 0.000738684 0.000837361 0.000837441 0.000738684 0.000739892 0.00285044 0.00284054 0.00204995 0.00204947 0.00284054 0.00285051 0.00204947 0.00204996 0.00285051 0.00284056 0.00204996 0.00204948 0.00284056 0.00285047 0.00204948 0.00204997 0.000913263 0.000913254 0.000837441 0.000837361 0.000913254 0.000913264 0.000837361 0.000837441 0.000837441 0.000837361 0.000739892 0.000738683 0.000837361 0.000837441 0.000738683 0.000739892 0.000913264 0.000913256 0.000837441 0.000837361 0.000913256 0.000913266 0.000837361 0.000837441 0.000837441 0.000837361 0.000739892 0.000738682 0.000837361 0.000837441 0.000738682 0.00073989 0.00285047 0.00284058 0.00204997 0.00204953 0.00284058 0.00285056 0.00204953 0.00205008 0.00285056 0.00284059 0.00205008 0.00204977 0.00284059 0.0028504 0.00204977 0.00205012 0.000913266 0.00091326 0.000837441 0.000837361 0.00091326 0.000913275 0.000837361 0.000837439 0.000837441 0.000837361 0.00073989 0.000738679 0.000837361 0.000837439 0.000738679 0.000739885 0.00285037 0.00284038 0.00205062 0.00205016 0.00284038 0.00285041 0.00205016 0.0020506 0.00205062 0.00205016 0.000913403 0.00091339 0.00205016 0.0020506 0.00091339 0.000913398 0.00285041 0.00284035 0.0020506 0.00205011 0.00284035 0.00285031 0.00205011 0.0020505 0.0020506 0.00205011 0.000913398 0.000913382 0.00205011 0.0020505 0.000913382 0.000913382 0.000913403 0.00091339 0.00083742 0.00083734 0.00091339 0.000913398 0.00083734 0.000837418 0.00083742 0.00083734 0.000739861 0.00073865 0.00083734 0.000837418 0.00073865 0.000739862 0.000913398 0.000913382 0.000837418 0.000837337 0.000913382 0.000913382 0.000837337 0.000837415 0.000837418 0.000837337 0.000739862 0.000738653 0.000837337 0.000837415 0.000738653 0.000739868 0.00285031 0.00284035 0.0020505 0.00204986 0.00284035 0.00285047 0.00204986 0.00205013 0.0020505 0.00204986 0.000913382 0.000913348 0.00204986 0.00205013 0.000913348 0.000913313 0.000913382 0.000913348 0.000837415 0.000837337 0.000913348 0.000913313 0.000837337 0.000837416 0.000837415 0.000837337 0.000739868 0.000738663 0.000837337 0.000837416 0.000738663 0.000739885 0.000913275 0.00091328 0.000837439 0.000837355 0.00091328 0.00091335 0.000837355 0.000837433 0.000837439 0.000837355 0.000739885 0.000738672 0.000837355 0.000837433 0.000738672 0.000739876 0.0028504 0.00284035 0.00205012 0.00204987 0.00284035 0.00285037 0.00204987 0.00205051 0.00205012 0.00204987 0.00091335 0.000913369 0.00204987 0.00205051 0.000913369 0.000913393 0.00285037 0.00284035 0.00205051 0.00205012 0.00284035 0.00285035 0.00205012 0.0020506 0.00205051 0.00205012 0.000913393 0.000913389 0.00205012 0.0020506 0.000913389 0.000913402 0.00091335 0.000913369 0.000837433 0.000837349 0.000913369 0.000913393 0.000837349 0.000837423 0.000837433 0.000837349 0.000739876 0.00073866 0.000837349 0.000837423 0.00073866 0.000739867 0.000913393 0.000913389 0.000837423 0.000837342 0.000913389 0.000913402 0.000837342 0.000837421 0.000837423 0.000837342 0.000739867 0.000738653 0.000837342 0.000837421 0.000738653 0.000739862 0.00285035 0.00284038 0.0020506 0.00205016 0.00284038 0.00285043 0.00205016 0.00205063 0.0020506 0.00205016 0.000913402 0.000913393 0.00205016 0.00205063 0.000913393 0.000913405 0.00285043 0.00284039 0.00205063 0.00205017 0.00284039 0.00285037 0.00205017 0.00205063 0.00205063 0.00205017 0.000913405 0.000913394 0.00205017 0.00205063 0.000913394 0.000913405 0.000913402 0.000913393 0.000837421 0.000837342 0.000913393 0.000913405 0.000837342 0.000837421 0.000837421 0.000837342 0.000739862 0.00073865 0.000837342 0.000837421 0.00073865 0.000739861 0.000913405 0.000913394 0.000837421 0.000837342 0.000913394 0.000913405 0.000837342 0.000837421 0.000837421 0.000837342 0.000739861 0.000738649 0.000837342 0.000837421 0.000738649 0.00073986 0.00285037 0.00284039 0.00205063 0.00205017 0.00284039 0.00285044 0.00205017 0.00205063 0.00205063 0.00205017 0.000913405 0.000913394 0.00205017 0.00205063 0.000913394 0.000913405 0.00285044 0.0028404 0.00205063 0.00205017 0.0028404 0.00285038 0.00205017 0.00205063 0.00205063 0.00205017 0.000913405 0.000913394 0.00205017 0.00205063 0.000913394 0.000913405 0.000913405 0.000913394 0.000837421 0.000837342 0.000913394 0.000913405 0.000837342 0.000837421 0.000837421 0.000837342 0.00073986 0.000738648 0.000837342 0.000837421 0.000738648 0.00073986 0.000913405 0.000913394 0.000837421 0.000837342 0.000913394 0.000913405 0.000837342 0.000837421 0.000837421 0.000837342 0.00073986 0.000738648 0.000837342 0.000837421 0.000738648 0.000739859 0.00285038 0.0028404 0.00205063 0.00205017 0.0028404 0.00285044 0.00205017 0.00205063 0.00205063 0.00205017 0.000913405 0.000913394 0.00205017 0.00205063 0.000913394 0.000913405 0.00285044 0.0028404 0.00205063 0.00205017 0.0028404 0.00285038 0.00205017 0.00205063 0.00205063 0.00205017 0.000913405 0.000913394 0.00205017 0.00205063 0.000913394 0.000913405 0.000913405 0.000913394 0.000837421 0.000837342 0.000913