# vtk DataFile Version 3.0
#This file was generated by the deal.II library on 2023/11/17 at 11:32:31
ASCII
DATASET UNSTRUCTURED_GRID

POINTS 900 double
1 0 0
0.965926 0.258819 0
0.8 0 0
0.772741 0.207055 0
0.965926 0.258819 0
0.866025 0.5 0
0.772741 0.207055 0
0.69282 0.4 0
0.866025 0.5 0
0.707107 0.707107 0
0.69282 0.4 0
0.565685 0.565685 0
0.707107 0.707107 0
0.5 0.866025 0
0.565685 0.565685 0
0.4 0.69282 0
0.4 0 0
0.38637 0.103528 0
0.2 0 0
0.193185 0.0517638 0
0.38637 0.103528 0
0.34641 0.2 0
0.193185 0.0517638 0
0.173205 0.1 0
0.34641 0.2 0
0.282843 0.282843 0
0.173205 0.1 0
0.141421 0.141421 0
0.282843 0.282843 0
0.2 0.34641 0
0.141421 0.141421 0
0.1 0.173205 0
0.5 0.866025 0
0.258819 0.965926 0
0.4 0.69282 0
0.207055 0.772741 0
0.258819 0.965926 0
3.88578e-16 1 0
0.207055 0.772741 0
3.45885e-16 0.8 0
3.88578e-16 1 0
-0.258819 0.965926 0
3.45885e-16 0.8 0
-0.207055 0.772741 0
-0.258819 0.965926 0
-0.5 0.866025 0
-0.207055 0.772741 0
-0.4 0.69282 0
0.2 0.34641 0
0.103528 0.38637 0
0.1 0.173205 0
0.0517638 0.193185 0
0.103528 0.38637 0
1.79352e-16 0.4 0
0.0517638 0.193185 0
5.55112e-17 0.2 0
1.79352e-16 0.4 0
-0.103528 0.38637 0
5.55112e-17 0.2 0
-0.0517638 0.193185 0
-0.103528 0.38637 0
-0.2 0.34641 0
-0.0517638 0.193185 0
-0.1 0.173205 0
-0.5 0.866025 0
-0.707107 0.707107 0
-0.4 0.69282 0
-0.565685 0.565685 0
-0.707107 0.707107 0
-0.866025 0.5 0
-0.565685 0.565685 0
-0.69282 0.4 0
-0.866025 0.5 0
-0.965926 0.258819 0
-0.69282 0.4 0
-0.772741 0.207055 0
-0.965926 0.258819 0
-1 1.22465e-16 0
-0.772741 0.207055 0
-0.8 9.79717e-17 0
-0.2 0.34641 0
-0.282843 0.282843 0
-0.1 0.173205 0
-0.141421 0.141421 0
-0.282843 0.282843 0
-0.34641 0.2 0
-0.141421 0.141421 0
-0.173205 0.1 0
-0.34641 0.2 0
-0.38637 0.103528 0
-0.173205 0.1 0
-0.193185 0.0517638 0
-0.38637 0.103528 0
-0.4 4.89859e-17 0
-0.193185 0.0517638 0
-0.2 2.44929e-17 0
-1 1.22465e-16 0
-0.965926 -0.258819 0
-0.8 9.79717e-17 0
-0.772741 -0.207055 0
-0.965926 -0.258819 0
-0.866025 -0.5 0
-0.772741 -0.207055 0
-0.69282 -0.4 0
-0.866025 -0.5 0
-0.707107 -0.707107 0
-0.69282 -0.4 0
-0.565685 -0.565685 0
-0.707107 -0.707107 0
-0.5 -0.866025 0
-0.565685 -0.565685 0
-0.4 -0.69282 0
-0.4 4.89859e-17 0
-0.38637 -0.103528 0
-0.2 2.44929e-17 0
-0.193185 -0.0517638 0
-0.38637 -0.103528 0
-0.34641 -0.2 0
-0.193185 -0.0517638 0
-0.173205 -0.1 0
-0.34641 -0.2 0
-0.282843 -0.282843 0
-0.173205 -0.1 0
-0.141421 -0.141421 0
-0.282843 -0.282843 0
-0.2 -0.34641 0
-0.141421 -0.141421 0
-0.1 -0.173205 0
-0.5 -0.866025 0
-0.258819 -0.965926 0
-0.4 -0.69282 0
-0.207055 -0.772741 0
-0.258819 -0.965926 0
-1.66533e-16 -1 0
-0.207055 -0.772741 0
-1.38376e-16 -0.8 0
-1.66533e-16 -1 0
0.258819 -0.965926 0
-1.38376e-16 -0.8 0
0.207055 -0.772741 0
0.258819 -0.965926 0
0.5 -0.866025 0
0.207055 -0.772741 0
0.4 -0.69282 0
-0.2 -0.34641 0
-0.103528 -0.38637 0
-0.1 -0.173205 0
-0.0517638 -0.193185 0
-0.103528 -0.38637 0
-7.17625e-17 -0.4 0
-0.0517638 -0.193185 0
-3.33067e-17 -0.2 0
-7.17625e-17 -0.4 0
0.103528 -0.38637 0
-3.33067e-17 -0.2 0
0.0517638 -0.193185 0
0.103528 -0.38637 0
0.2 -0.34641 0
0.0517638 -0.193185 0
0.1 -0.173205 0
0.5 -0.866025 0
0.707107 -0.707107 0
0.4 -0.69282 0
0.565685 -0.565685 0
0.707107 -0.707107 0
0.866025 -0.5 0
0.565685 -0.565685 0
0.69282 -0.4 0
0.866025 -0.5 0
0.965926 -0.258819 0
0.69282 -0.4 0
0.772741 -0.207055 0
0.965926 -0.258819 0
1 0 0
0.772741 -0.207055 0
0.8 0 0
0.772741 -0.207055 0
0.8 0 0
0.579555 -0.155291 0
0.6 0 0
0.3 -0.519615 0
0.424264 -0.424264 0
0.2 -0.34641 0
0.282843 -0.282843 0
0.424264 -0.424264 0
0.519615 -0.3 0
0.282843 -0.282843 0
0.34641 -0.2 0
0.2 -0.34641 0
0.282843 -0.282843 0
0.1 -0.173205 0
0.141421 -0.141421 0
0.282843 -0.282843 0
0.34641 -0.2 0
0.141421 -0.141421 0
0.173205 -0.1 0
0.519615 -0.3 0
0.579555 -0.155291 0
0.34641 -0.2 0
0.38637 -0.103528 0
0.579555 -0.155291 0
0.6 0 0
0.38637 -0.103528 0
0.4 0 0
0.34641 -0.2 0
0.38637 -0.103528 0
0.173205 -0.1 0
0.193185 -0.0517638 0
0.38637 -0.103528 0
0.4 0 0
0.193185 -0.0517638 0
0.2 0 0
0.8 0 0
0.793156 0.104421 0
0.7 0 0
0.694011 0.0913683 0
0.793156 0.104421 0
0.772741 0.207055 0
0.694011 0.0913683 0
0.676148 0.181173 0
0.7 0 0
0.694011 0.0913683 0
0.6 0 0
0.594867 0.0783157 0
0.694011 0.0913683 0
0.676148 0.181173 0
0.594867 0.0783157 0
0.579555 0.155291 0
0.772741 0.207055 0
0.739104 0.306147 0
0.676148 0.181173 0
0.646716 0.267878 0
0.739104 0.306147 0
0.69282 0.4 0
0.646716 0.267878 0
0.606218 0.35 0
0.676148 0.181173 0
0.646716 0.267878 0
0.579555 0.155291 0
0.554328 0.22961 0
0.646716 0.267878 0
0.606218 0.35 0
0.554328 0.22961 0
0.519615 0.3 0
0.69282 0.4 0
0.634683 0.487009 0
0.606218 0.35 0
0.555347 0.426133 0
0.634683 0.487009 0
0.565685 0.565685 0
0.555347 0.426133 0
0.494975 0.494975 0
0.606218 0.35 0
0.555347 0.426133 0
0.519615 0.3 0
0.476012 0.365257 0
0.555347 0.426133 0
0.494975 0.494975 0
0.476012 0.365257 0
0.424264 0.424264 0
0.565685 0.565685 0
0.487009 0.634683 0
0.494975 0.494975 0
0.426133 0.555347 0
0.487009 0.634683 0
0.4 0.69282 0
0.426133 0.555347 0
0.35 0.606218 0
0.494975 0.494975 0
0.426133 0.555347 0
0.424264 0.424264 0
0.365257 0.476012 0
0.426133 0.555347 0
0.35 0.606218 0
0.365257 0.476012 0
0.3 0.519615 0
0.6 0 0
0.594867 0.0783157 0
0.5 0 0
0.495722 0.0652631 0
0.594867 0.0783157 0
0.579555 0.155291 0
0.495722 0.0652631 0
0.482963 0.12941 0
0.5 0 0
0.495722 0.0652631 0
0.4 0 0
0.396578 0.0522105 0
0.495722 0.0652631 0
0.482963 0.12941 0
0.396578 0.0522105 0
0.38637 0.103528 0
0.579555 0.155291 0
0.554328 0.22961 0
0.482963 0.12941 0
0.46194 0.191342 0
0.554328 0.22961 0
0.519615 0.3 0
0.46194 0.191342 0
0.433013 0.25 0
0.482963 0.12941 0
0.46194 0.191342 0
0.38637 0.103528 0
0.369552 0.153073 0
0.46194 0.191342 0
0.433013 0.25 0
0.369552 0.153073 0
0.34641 0.2 0
0.519615 0.3 0
0.476012 0.365257 0
0.433013 0.25 0
0.396677 0.304381 0
0.476012 0.365257 0
0.424264 0.424264 0
0.396677 0.304381 0
0.353553 0.353553 0
0.433013 0.25 0
0.396677 0.304381 0
0.34641 0.2 0
0.317341 0.243505 0
0.396677 0.304381 0
0.353553 0.353553 0
0.317341 0.243505 0
0.282843 0.282843 0
0.424264 0.424264 0
0.365257 0.476012 0
0.353553 0.353553 0
0.304381 0.396677 0
0.365257 0.476012 0
0.3 0.519615 0
0.304381 0.396677 0
0.25 0.433013 0
0.353553 0.353553 0
0.304381 0.396677 0
0.282843 0.282843 0
0.243505 0.317341 0
0.304381 0.396677 0
0.25 0.433013 0
0.243505 0.317341 0
0.2 0.34641 0
0.4 0.69282 0
0.306147 0.739104 0
0.35 0.606218 0
0.267878 0.646716 0
0.306147 0.739104 0
0.207055 0.772741 0
0.267878 0.646716 0
0.181173 0.676148 0
0.35 0.606218 0
0.267878 0.646716 0
0.3 0.519615 0
0.22961 0.554328 0
0.267878 0.646716 0
0.181173 0.676148 0
0.22961 0.554328 0
0.155291 0.579555 0
0.207055 0.772741 0
0.104421 0.793156 0
0.181173 0.676148 0
0.0913683 0.694011 0
0.104421 0.793156 0
3.45885e-16 0.8 0
0.0913683 0.694011 0
3.24539e-16 0.7 0
0.181173 0.676148 0
0.0913683 0.694011 0
0.155291 0.579555 0
0.0783157 0.594867 0
0.0913683 0.694011 0
3.24539e-16 0.7 0
0.0783157 0.594867 0
3.03193e-16 0.6 0
3.45885e-16 0.8 0
-0.104421 0.793156 0
3.24539e-16 0.7 0
-0.0913683 0.694011 0
-0.104421 0.793156 0
-0.207055 0.772741 0
-0.0913683 0.694011 0
-0.181173 0.676148 0
3.24539e-16 0.7 0
-0.0913683 0.694011 0
3.03193e-16 0.6 0
-0.0783157 0.594867 0
-0.0913683 0.694011 0
-0.181173 0.676148 0
-0.0783157 0.594867 0
-0.155291 0.579555 0
-0.207055 0.772741 0
-0.306147 0.739104 0
-0.181173 0.676148 0
-0.267878 0.646716 0
-0.306147 0.739104 0
-0.4 0.69282 0
-0.267878 0.646716 0
-0.35 0.606218 0
-0.181173 0.676148 0
-0.267878 0.646716 0
-0.155291 0.579555 0
-0.22961 0.554328 0
-0.267878 0.646716 0
-0.35 0.606218 0
-0.22961 0.554328 0
-0.3 0.519615 0
0.3 0.519615 0
0.22961 0.554328 0
0.25 0.433013 0
0.191342 0.46194 0
0.22961 0.554328 0
0.155291 0.579555 0
0.191342 0.46194 0
0.12941 0.482963 0
0.25 0.433013 0
0.191342 0.46194 0
0.2 0.34641 0
0.153073 0.369552 0
0.191342 0.46194 0
0.12941 0.482963 0
0.153073 0.369552 0
0.103528 0.38637 0
0.155291 0.579555 0
0.0783157 0.594867 0
0.12941 0.482963 0
0.0652631 0.495722 0
0.0783157 0.594867 0
3.03193e-16 0.6 0
0.0652631 0.495722 0
2.41272e-16 0.5 0
0.12941 0.482963 0
0.0652631 0.495722 0
0.103528 0.38637 0
0.0522105 0.396578 0
0.0652631 0.495722 0
2.41272e-16 0.5 0
0.0522105 0.396578 0
1.79352e-16 0.4 0
3.03193e-16 0.6 0
-0.0783157 0.594867 0
2.41272e-16 0.5 0
-0.0652631 0.495722 0
-0.0783157 0.594867 0
-0.155291 0.579555 0
-0.0652631 0.495722 0
-0.12941 0.482963 0
2.41272e-16 0.5 0
-0.0652631 0.495722 0
1.79352e-16 0.4 0
-0.0522105 0.396578 0
-0.0652631 0.495722 0
-0.12941 0.482963 0
-0.0522105 0.396578 0
-0.103528 0.38637 0
-0.155291 0.579555 0
-0.22961 0.554328 0
-0.12941 0.482963 0
-0.191342 0.46194 0
-0.22961 0.554328 0
-0.3 0.519615 0
-0.191342 0.46194 0
-0.25 0.433013 0
-0.12941 0.482963 0
-0.191342 0.46194 0
-0.103528 0.38637 0
-0.153073 0.369552 0
-0.191342 0.46194 0
-0.25 0.433013 0
-0.153073 0.369552 0
-0.2 0.34641 0
-0.4 0.69282 0
-0.487009 0.634683 0
-0.35 0.606218 0
-0.426133 0.555347 0
-0.487009 0.634683 0
-0.565685 0.565685 0
-0.426133 0.555347 0
-0.494975 0.494975 0
-0.35 0.606218 0
-0.426133 0.555347 0
-0.3 0.519615 0
-0.365257 0.476012 0
-0.426133 0.555347 0
-0.494975 0.494975 0
-0.365257 0.476012 0
-0.424264 0.424264 0
-0.565685 0.565685 0
-0.634683 0.487009 0
-0.494975 0.494975 0
-0.555347 0.426133 0
-0.634683 0.487009 0
-0.69282 0.4 0
-0.555347 0.426133 0
-0.606218 0.35 0
-0.494975 0.494975 0
-0.555347 0.426133 0
-0.424264 0.424264 0
-0.476012 0.365257 0
-0.555347 0.426133 0
-0.606218 0.35 0
-0.476012 0.365257 0
-0.519615 0.3 0
-0.69282 0.4 0
-0.739104 0.306147 0
-0.606218 0.35 0
-0.646716 0.267878 0
-0.739104 0.306147 0
-0.772741 0.207055 0
-0.646716 0.267878 0
-0.676148 0.181173 0
-0.606218 0.35 0
-0.646716 0.267878 0
-0.519615 0.3 0
-0.554328 0.22961 0
-0.646716 0.267878 0
-0.676148 0.181173 0
-0.554328 0.22961 0
-0.579555 0.155291 0
-0.772741 0.207055 0
-0.793156 0.104421 0
-0.676148 0.181173 0
-0.694011 0.0913683 0
-0.793156 0.104421 0
-0.8 9.79717e-17 0
-0.694011 0.0913683 0
-0.7 8.57253e-17 0
-0.676148 0.181173 0
[...]
POINT_DATA 900
SCALARS solution double 1
LOOKUP_TABLE default
0 0 0.00282373 0.00305078 0 0 0.00305078 0.00316096 0 0 0.00316096 0.00319944 0 0 0.00319944 0.00321146 0.000806845 0.000757772 0 0 0.000757772 0.000747176 0 0 0.000747176 0.000743123 0 0 0.000743123 0.000741054 0 0 0 0 0.00321146 0.00321497 0 0 0.00321497 0.00321592 0 0 0.00321592 0.00321612 0 0 0.00321612 0.00321613 0.000741054 0.000739859 0 0 0.000739859 0.000739137 0 0 0.000739137 0.000738699 0 0 0.000738699 0.00073844 0 0 0 0 0.00321613 0.0032161 0 0 0.0032161 0.00321609 0 0 0.00321609 0.00321611 0 0 0.00321611 0.00321613 0.00073844 0.000738306 0 0 0.000738306 0.000738265 0 0 0.000738265 0.000738311 0 0 0.000738311 0.000738452 0 0 0 0 0.00321613 0.00321612 0 0 0.00321612 0.00321593 0 0 0.00321593 0.003215 0 0 0.003215 0.00321149 0.000738452 0.000738718 0 0 0.000738718 0.00073917 0 0 0.00073917 0.000739911 0 0 0.000739911 0.000741136 0 0 0 0 0.00321149 0.0031995 0 0 0.0031995 0.00316108 0 0 0.00316108 0.00305158 0 0 0.00305158 0.00283423 0.000741136 0.000743254 0 0 0.000743254 0.000747385 0 0 0.000747385 0.000758084 0 0 0.000758084 0.000806671 0 0 0 0 0.00283423 0.0026642 0 0 0.0026642 0.00262121 0 0 0.00262121 0.00265612 0 0 0.00265612 0.00282373 0.00265612 0.00282373 0.00143858 0.00180308 0.00179182 0.00143213 0.000806671 0.000820606 0.00143213 0.00140239 0.000820606 0.00082299 0.000806671 0.000820606 0 0 0.000820606 0.00082299 0 0 0.00140239 0.00143858 0.00082299 0.00082078 0.00143858 0.00180308 0.00082078 0.000806845 0.00082299 0.00082078 0 0 0.00082078 0.000806845 0 0 0.00282373 0.00297626 0.00292709 0.00315492 0.00297626 0.00305078 0.00315492 0.0033259 0.00292709 0.00315492 0.00180308 0.00242679 0.00315492 0.0033259 0.00242679 0.00265052 0.00305078 0.00314462 0.0033259 0.00342862 0.00314462 0.00316096 0.00342862 0.0034841 0.0033259 0.00342862 0.00265052 0.00274999 0.00342862 0.0034841 0.00274999 0.00279846 0.00316096 0.00321219 0.0034841 0.00351665 0.00321219 0.00319944 0.00351665 0.00353246 0.0034841 0.00351665 0.00279846 0.00282329 0.00351665 0.00353246 0.00282329 0.0028362 0.00319944 0.00323404 0.00353246 0.00354304 0.00323404 0.00321146 0.00354304 0.00354675 0.00353246 0.00354304 0.0028362 0.00284302 0.00354304 0.00354675 0.00284302 0.00284651 0.00180308 0.00242679 0.00102573 0.000925377 0.00242679 0.00265052 0.000925377 0.00091991 0.00102573 0.000925377 0.000806845 0.000764408 0.000925377 0.00091991 0.000764408 0.000757772 0.00265052 0.00274999 0.00091991 0.000918143 0.00274999 0.00279846 0.000918143 0.000917595 0.00091991 0.000918143 0.000757772 0.000748229 0.000918143 0.000917595 0.000748229 0.000747176 0.00279846 0.00282329 0.000917595 0.000916376 0.00282329 0.0028362 0.000916376 0.000915887 0.000917595 0.000916376 0.000747176 0.000741993 0.000916376 0.000915887 0.000741993 0.000743123 0.0028362 0.00284302 0.000915887 0.000914802 0.00284302 0.00284651 0.000914802 0.000914493 0.000915887 0.000914802 0.000743123 0.000739117 0.000914802 0.000914493 0.000739117 0.000741054 0.00321146 0.00324061 0.00354675 0.00355071 0.00324061 0.00321497 0.00355071 0.00355078 0.00354675 0.00355071 0.00284651 0.00284833 0.00355071 0.00355078 0.00284833 0.00284915 0.00321497 0.00324246 0.00355078 0.00355277 0.00324246 0.00321592 0.00355277 0.0035518 0.00355078 0.00355277 0.00284915 0.00284956 0.00355277 0.0035518 0.00284956 0.00284965 0.00321592 0.00324291 0.0035518 0.00355323 0.00324291 0.00321612 0.00355323 0.00355197 0.0035518 0.00355323 0.00284965 0.0028497 0.00355323 0.00355197 0.0028497 0.00284961 0.00321612 0.00324298 0.00355197 0.00355326 0.00324298 0.00321613 0.00355326 0.00355194 0.00355197 0.00355326 0.00284961 0.00284959 0.00355326 0.00355194 0.00284959 0.00284949 0.00284651 0.00284833 0.000914493 0.000913597 0.00284833 0.00284915 0.000913597 0.000913478 0.000914493 0.000913597 0.000741054 0.000737539 0.000913597 0.000913478 0.000737539 0.000739859 0.00284915 0.00284956 0.000913478 0.000912755 0.00284956 0.00284965 0.000912755 0.00091279 0.000913478 0.000912755 0.000739859 0.000736605 0.000912755 0.00091279 0.000736605 0.000739137 0.00284965 0.0028497 0.00091279 0.000912199 0.0028497 0.00284961 0.000912199 0.000912347 0.00091279 0.000912199 0.000739137 0.000736039 0.000912199 0.000912347 0.000736039 0.000738699 0.00284961 0.00284959 0.000912347 0.000911851 0.00284959 0.00284949 0.000911851 0.000912079 0.000912347 0.000911851 0.000738699 0.000735699 0.000911851 0.000912079 0.000735699 0.00073844 0.00321613 0.00324296 0.00355194 0.00355321 0.00324296 0.0032161 0.00355321 0.00355189 0.00355194 0.00355321 0.00284949 0.00284948 0.00355321 0.00355189 0.00284948 0.0028494 0.0032161 0.00324294 0.00355189 0.00355318 0.00324294 0.00321609 0.00355318 0.00355188 0.00355189 0.00355318 0.0028494 0.00284942 0.00355318 0.00355188 0.00284942 0.00284938 0.00321609 0.00324294 0.00355188 0.00355318 0.00324294 0.00321611 0.00355318 0.0035519 0.00355188 0.00355318 0.00284938 0.00284942 0.00355318 0.0035519 0.00284942 0.00284941 0.00321611 0.00324296 0.0035519 0.00355322 0.00324296 0.00321613 0.00355322 0.00355195 0.0035519 0.00355322 0.00284941 0.00284949 0.00355322 0.00355195 0.00284949 0.0028495 0.00284949 0.00284948 0.000912079 0.00091165 0.00284948 0.0028494 0.00091165 0.000911937 0.000912079 0.00091165 0.00073844 0.000735507 0.00091165 0.000911937 0.000735507 0.000738306 0.0028494 0.00284942 0.000911937 0.00091156 0.00284942 0.00284938 0.00091156 0.000911894 0.000911937 0.00091156 0.000738306 0.000735421 0.00091156 0.000911894 0.000735421 0.000738265 0.00284938 0.00284942 0.000911894 0.000911563 0.00284942 0.00284941 0.000911563 0.000911943 0.000911894 0.000911563 0.000738265 0.000735424 0.000911563 0.000911943 0.000735424 0.000738311 0.00284941 0.00284949 0.000911943 0.000911659 0.00284949 0.0028495 0.000911659 0.000912091 0.000911943 0.000911659 0.000738311 0.000735515 0.000911659 0.000912091 0.000735515 0.000738452 0.00321613 0.00324298 0.00355195 0.00355327 0.00324298 0.00321612 0.00355327 0.00355198 0.00355195 0.00355327 0.0028495 0.0028496 0.00355327 0.00355198 0.0028496 0.00284963 0.00321612 0.00324292 0.00355198 0.00355325 0.00324292 0.00321593 0.00355325 0.00355182 0.00355198 0.00355325 0.00284963 0.00284972 0.00355325 0.00355182 0.00284972 0.00284968 0.00321593 0.00324248 0.00355182 0.0035528 0.00324248 0.003215 0.0035528 0.00355082 0.00355182 0.0035528 0.00284968 0.0028496 0.0035528 0.00355082 0.0028496 0.00284919 0.003215 0.00324064 0.00355082 0.00355075 0.00324064 0.00321149 0.00355075 0.00354681 0.00355082 0.00355075 0.00284919 0.00284839 0.00355075 0.00354681 0.00284839 0.00284658 0.0028495 0.0028496 0.000912091 0.000911867 0.0028496 0.00284963 0.000911867 0.000912368 0.000912091 0.000911867 0.000738452 0.000735714 0.000911867 0.000912368 0.000735714 0.000738718 0.00284963 0.00284972 0.000912368 0.000912226 0.00284972 0.00284968 0.000912226 0.000912825 0.000912368 0.000912226 0.000738718 0.000736064 0.000912226 0.000912825 0.000736064 0.00073917 0.00284968 0.0028496 0.000912825 0.000912799 0.0028496 0.00284919 0.000912799 0.000913534 0.000912825 0.000912799 0.00073917 0.000736646 0.000912799 0.000913534 0.000736646 0.000739911 0.00284919 0.00284839 0.000913534 0.000913668 0.00284839 0.00284658 0.000913668 0.000914582 0.000913534 0.000913668 0.000739911 0.000737605 0.000913668 0.000914582 0.000737605 0.000741136 0.00321149 0.00323409 0.00354681 0.00354311 0.00323409 0.0031995 0.00354311 0.00353255 0.00354681 0.00354311 0.00284658 0.00284312 0.00354311 0.00353255 0.00284312 0.00283632 0.0031995 0.00321225 0.00353255 0.00351676 0.00321225 0.00316108 0.00351676 0.00348423 0.00353255 0.00351676 0.00283632 0.00282345 0.00351676 0.00348423 0.00282345 0.00279866 0.00316108 0.00314464 0.00348423 0.00342876 0.00314464 0.00305158 0.00342876 0.0033259 0.00348423 0.00342876 0.00279866 0.00275029 0.00342876 0.0033259 0.00275029 0.00265106 0.00305158 0.00297375 0.0033259 0.00315394 0.00297375 0.00283423 0.00315394 0.00291162 0.0033259 0.00315394 0.00265106 0.0024276 0.00315394 0.00291162 0.0024276 0.00179182 0.00284658 0.00284312 0.000914582 0.000914915 0.00284312 0.00283632 0.000914915 0.00091603 0.000914582 0.000914915 0.000741136 0.000739221 0.000914915 0.00091603 0.000739221 0.000743254 0.00283632 0.00282345 0.00091603 0.000916559 0.00282345 0.00279866 0.000916559 0.000917833 0.00091603 0.000916559 0.000743254 0.000742158 0.000916559 0.000917833 0.000742158 0.000747385 0.00279866 0.00275029 0.000917833 0.000918458 0.00275029 0.00265106 0.000918458 0.000920333 0.000917833 0.000918458 0.000747385 0.000748492 0.000918458 0.000920333 0.000748492 0.000758084 0.00265106 0.0024276 0.000920333 0.000925953 0.0024276 0.00179182 0.000925953 0.00102587 0.000920333 0.000925953 0.000758084 0.000764785 0.000925953 0.00102587 0.000764785 0.000806671 0.00283423 0.0027471 0.00291162 0.00271687 0.0027471 0.0026642 0.00271687 0.00262004 0.00291162 0.00271687 0.00179182 0.00143259 0.00271687 0.00262004 0.00143259 0.00143213 0.0026642 0.00264487 0.00262004 0.00257913 0.00264487 0.00262121 0.00257913 0.00256874 0.00262004 0.00257913 0.00143213 0.00138133 0.00257913 0.00256874 0.00138133 0.00140239 0.00262121 0.0026454 0.00256874 0.00257989 0.0026454 0.00265612 0.00257989 0.00262285 0.00256874 0.00257989 0.00140239 0.00138128 0.00257989 0.00262285 0.00138128 0.00143858 
