# vtk DataFile Version 3.0
Triangulation generated with deal.II
ASCII
DATASET UNSTRUCTURED_GRID
POINTS 693 double
-1 -1 0
-0.666667 -1 0
-0.333333 -1 0
0 -1 0
0.333333 -1 0
0.666667 -1 0
1 -1 0
-1 -0.666667 0
-0.666667 -0.666667 0
-0.333333 -0.666667 0
0 -0.666667 0
0.333333 -0.666667 0
0.666667 -0.666667 0
1 -0.666667 0
-1 -0.333333 0
-0.666667 -0.333333 0
-0.333333 -0.333333 0
0 -0.333333 0
0.333333 -0.333333 0
0.666667 -0.333333 0
1 -0.333333 0
-1 0 0
-0.666667 0 0
-0.333333 0 0
0 0 0
0.333333 0 0
0.666667 0 0
1 0 0
-1 0.333333 0
-0.666667 0.333333 0
-0.333333 0.333333 0
0 0.333333 0
0.333333 0.333333 0
0.666667 0.333333 0
1 0.333333 0
-1 0.666667 0
-0.666667 0.666667 0
-0.333333 0.666667 0
0 0.666667 0
0.333333 0.666667 0
0.666667 0.666667 0
1 0.666667 0
-1 1 0
-0.666667 1 0
-0.333333 1 0
0 1 0
0.333333 1 0
0.666667 1 0
1 1 0
-0.833333 -1 0
-1 -0.833333 0
-0.5 -1 0
-0.666667 -0.833333 0
-0.166667 -1 0
-0.333333 -0.833333 0
0.166667 -1 0
0 -0.833333 0
0.5 -1 0
0.333333 -0.833333 0
0.833333 -1 0
0.666667 -0.833333 0
1 -0.833333 0
-0.833333 -0.666667 0
-1 -0.5 0
-0.5 -0.666667 0
-0.666667 -0.5 0
-0.166667 -0.666667 0
-0.333333 -0.5 0
0.166667 -0.666667 0
0 -0.5 0
0.5 -0.666667 0
0.333333 -0.5 0
0.833333 -0.666667 0
0.666667 -0.5 0
1 -0.5 0
-0.833333 -0.333333 0
-1 -0.166667 0
-0.5 -0.333333 0
-0.666667 -0.166667 0
-0.166667 -0.333333 0
-0.333333 -0.166667 0
0.166667 -0.333333 0
0 -0.166667 0
0.5 -0.333333 0
0.333333 -0.166667 0
0.833333 -0.333333 0
0.666667 -0.166667 0
1 -0.166667 0
-0.833333 0 0
-1 0.166667 0
-0.5 0 0
-0.666667 0.166667 0
-0.166667 0 0
-0.333333 0.166667 0
0.166667 0 0
0 0.166667 0
0.5 0 0
0.333333 0.166667 0
0.833333 0 0
0.666667 0.166667 0
1 0.166667 0
-0.833333 0.333333 0
-1 0.5 0
-0.5 0.333333 0
-0.666667 0.5 0
-0.166667 0.333333 0
-0.333333 0.5 0
0.166667 0.333333 0
0 0.5 0
0.5 0.333333 0
0.333333 0.5 0
0.833333 0.333333 0
0.666667 0.5 0
1 0.5 0
-0.833333 0.666667 0
-1 0.833333 0
-0.5 0.666667 0
-0.666667 0.833333 0
-0.166667 0.666667 0
-0.333333 0.833333 0
0.166667 0.666667 0
0 0.833333 0
0.5 0.666667 0
0.333333 0.833333 0
0.833333 0.666667 0
0.666667 0.833333 0
1 0.833333 0
-0.833333 1 0
-0.5 1 0
-0.166667 1 0
0.166667 1 0
0.5 1 0
0.833333 1 0
-0.833333 -0.833333 0
-0.5 -0.833333 0
-0.166667 -0.833333 0
0.166667 -0.833333 0
0.5 -0.833333 0
0.833333 -0.833333 0
-0.833333 -0.5 0
-0.5 -0.5 0
-0.166667 -0.5 0
0.166667 -0.5 0
0.5 -0.5 0
0.833333 -0.5 0
-0.833333 -0.166667 0
-0.5 -0.166667 0
-0.166667 -0.166667 0
0.166667 -0.166667 0
0.5 -0.166667 0
0.833333 -0.166667 0
-0.833333 0.166667 0
-0.5 0.166667 0
-0.166667 0.166667 0
0.166667 0.166667 0
0.5 0.166667 0
0.833333 0.166667 0
-0.833333 0.5 0
-0.5 0.5 0
-0.166667 0.5 0
0.166667 0.5 0
0.5 0.5 0
0.833333 0.5 0
-0.833333 0.833333 0
-0.5 0.833333 0
-0.166667 0.833333 0
0.166667 0.833333 0
0.5 0.833333 0
0.833333 0.833333 0
-0.916667 -1 0
-0.75 -1 0
-1 -0.916667 0
-1 -0.75 0
-0.583333 -1 0
-0.416667 -1 0
-0.666667 -0.916667 0
-0.666667 -0.75 0
-0.125 -0.333333 0
-0.0416667 -0.333333 0
-0.333333 -0.916667 0
-0.333333 -0.75 0
-0.333333 -0.125 0
-0.333333 -0.0416667 0
0.0416667 -0.333333 0
0.125 -0.333333 0
0.416667 -1 0
0.583333 -1 0
0.333333 -0.916667 0
0.333333 -0.75 0
0.75 -1 0
0.916667 -1 0
0.666667 -0.916667 0
0.666667 -0.75 0
1 -0.916667 0
1 -0.75 0
-0.916667 -0.666667 0
-0.75 -0.666667 0
-1 -0.583333 0
-1 -0.416667 0
-0.583333 -0.666667 0
-0.416667 -0.666667 0
-0.666667 -0.583333 0
-0.666667 -0.416667 0
-0.25 -0.666667 0
-0.0833333 -0.666667 0
-0.333333 -0.583333 0
-0.333333 -0.416667 0
0.0833333 -0.666667 0
0.25 -0.666667 0
0 -0.583333 0
0 -0.416667 0
0.416667 -0.666667 0
0.583333 -0.666667 0
0.333333 -0.583333 0
0.333333 -0.416667 0
0.75 -0.666667 0
0.916667 -0.666667 0
0.666667 -0.583333 0
0.666667 -0.416667 0
1 -0.583333 0
1 -0.416667 0
-0.916667 -0.333333 0
-0.75 -0.333333 0
0 -0.291667 0
0 -0.208333 0
-0.583333 -0.333333 0
-0.416667 -0.333333 0
-0.666667 -0.25 0
-0.666667 -0.0833333 0
-0.25 -0.333333 0
-0.0833333 -0.333333 0
-0.333333 -0.25 0
-0.333333 -0.0833333 0
0.0833333 -0.333333 0
0.25 -0.333333 0
0 -0.25 0
0 -0.0833333 0
0.416667 -0.333333 0
0.583333 -0.333333 0
0.333333 -0.25 0
0.333333 -0.0833333 0
0.75 -0.333333 0
0.916667 -0.333333 0
0.666667 -0.25 0
0.666667 -0.0833333 0
0.333333 -0.125 0
0.333333 -0.0416667 0
-0.291667 0 0
-0.208333 0 0
-0.333333 0.0416667 0
-0.333333 0.125 0
-0.583333 0 0
-0.416667 0 0
-0.666667 0.0833333 0
-0.666667 0.25 0
-0.25 0 0
-0.0833333 0 0
-0.333333 0.0833333 0
-0.333333 0.25 0
0.0833333 0 0
0.25 0 0
0 0.0833333 0
0 0.25 0
0.416667 0 0
0.583333 0 0
0.333333 0.0833333 0
0.333333 0.25 0
0.208333 0 0
0.291667 0 0
0.666667 0.0833333 0
0.666667 0.25 0
0 0.208333 0
0 0.291667 0
-0.916667 0.333333 0
-0.75 0.333333 0
-1 0.416667 0
-1 0.583333 0
-0.583333 0.333333 0
-0.416667 0.333333 0
-0.666667 0.416667 0
-0.666667 0.583333 0
-0.25 0.333333 0
-0.0833333 0.333333 0
-0.333333 0.416667 0
-0.333333 0.583333 0
0.0833333 0.333333 0
0.25 0.333333 0
0 0.416667 0
0 0.583333 0
0.416667 0.333333 0
0.583333 0.333333 0
0.333333 0.416667 0
0.333333 0.583333 0
0.75 0.333333 0
0.916667 0.333333 0
0.666667 0.416667 0
0.666667 0.583333 0
1 0.416667 0
1 0.583333 0
-0.916667 0.666667 0
-0.75 0.666667 0
-1 0.75 0
-1 0.916667 0
-0.583333 0.666667 0
-0.416667 0.666667 0
-0.666667 0.75 0
-0.666667 0.916667 0
-0.25 0.666667 0
-0.0833333 0.666667 0
-0.333333 0.75 0
-0.333333 0.916667 0
0.0833333 0.666667 0
0.25 0.666667 0
0.333333 0.0416667 0
0.333333 0.125 0
0.416667 0.666667 0
0.583333 0.666667 0
0.333333 0.75 0
0.333333 0.916667 0
0.75 0.666667 0
0.916667 0.666667 0
0.666667 0.75 0
0.666667 0.916667 0
1 0.75 0
1 0.916667 0
-0.916667 1 0
-0.75 1 0
-0.583333 1 0
-0.416667 1 0
-0.125 0.333333 0
-0.0416667 0.333333 0
0.0416667 0.333333 0
0.125 0.333333 0
0.416667 1 0
0.583333 1 0
0.75 1 0
0.916667 1 0
-0.833333 -0.916667 0
-0.833333 -0.75 0
-0.916667 -0.833333 0
-0.75 -0.833333 0
-0.5 -0.916667 0
-0.5 -0.75 0
-0.583333 -0.833333 0
-0.416667 -0.833333 0
-0.166667 -0.291667 0
-0.166667 -0.75 0
-0.25 -0.833333 0
-0.166667 -0.208333 0
-0.166667 -0.125 0
0.166667 -0.75 0
-0.166667 -0.0416667 0
0.25 -0.833333 0
0.5 -0.916667 0
0.5 -0.75 0
0.416667 -0.833333 0
0.583333 -0.833333 0
0.833333 -0.916667 0
0.833333 -0.75 0
0.75 -0.833333 0
0.916667 -0.833333 0
-0.833333 -0.583333 0
-0.833333 -0.416667 0
-0.916667 -0.5 0
-0.75 -0.5 0
-0.5 -0.583333 0
-0.5 -0.416667 0
-0.583333 -0.5 0
-0.416667 -0.5 0
-0.166667 -0.583333 0
-0.166667 -0.416667 0
-0.25 -0.5 0
-0.0833333 -0.5 0
0.166667 -0.583333 0
0.166667 -0.416667 0
0.0833333 -0.5 0
0.25 -0.5 0
0.5 -0.583333 0
0.5 -0.416667 0
0.416667 -0.5 0
0.583333 -0.5 0
0.833333 -0.583333 0
0.833333 -0.416667 0
0.75 -0.5 0
0.916667 -0.5 0
-0.833333 -0.25 0
-0.291667 -0.166667 0
-0.208333 -0.166667 0
-0.75 -0.166667 0
-0.5 -0.25 0
-0.5 -0.0833333 0
-0.583333 -0.166667 0
-0.416667 -0.166667 0
-0.166667 -0.25 0
-0.166667 -0.0833333 0
-0.25 -0.166667 0
-0.0833333 -0.166667 0
0.166667 -0.25 0
0.166667 -0.0833333 0
0.0833333 -0.166667 0
0.25 -0.166667 0
0.5 -0.25 0
0.5 -0.0833333 0
0.416667 -0.166667 0
0.583333 -0.166667 0
0.833333 -0.25 0
-0.125 -0.166667 0
0.75 -0.166667 0
-0.0416667 -0.166667 0
0.166667 -0.291667 0
-0.833333 0.25 0
0.166667 -0.208333 0
-0.75 0.166667 0
-0.5 0.0833333 0
-0.5 0.25 0
-0.583333 0.166667 0
-0.416667 0.166667 0
-0.166667 0.0833333 0
-0.166667 0.25 0
-0.25 0.166667 0
-0.0833333 0.166667 0
0.166667 0.0833333 0
0.166667 0.25 0
0.0833333 0.166667 0
0.25 0.166667 0
0.5 0.0833333 0
0.5 0.25 0
0.416667 0.166667 0
0.583333 0.166667 0
0.166667 -0.125 0
0.833333 0.25 0
0.75 0.166667 0
0.166667 -0.0416667 0
-0.833333 0.416667 0
-0.833333 0.583333 0
-0.916667 0.5 0
-0.75 0.5 0
-0.5 0.416667 0
-0.5 0.583333 0
-0.583333 0.5 0
-0.416667 0.5 0
-0.166667 0.416667 0
-0.166667 0.583333 0
-0.25 0.5 0
-0.0833333 0.5 0
0.166667 0.416667 0
0.166667 0.583333 0
0.0833333 0.5 0
0.25 0.5 0
0.5 0.416667 0
0.5 0.583333 0
0.416667 0.5 0
0.583333 0.5 0
0.833333 0.416667 0
0.833333 0.583333 0
0.75 0.5 0
0.916667 0.5 0
-0.833333 0.75 0
-0.833333 0.916667 0
-0.916667 0.833333 0
-0.75 0.833333 0
-0.5 0.75 0
-0.5 0.916667 0
-0.583333 0.833333 0
-0.416667 0.833333 0
-0.166667 0.75 0
0.0416667 -0.166667 0
-0.25 0.833333 0
0.125 -0.166667 0
0.166667 0.75 0
0.208333 -0.166667 0
0.291667 -0.166667 0
0.25 0.833333 0
0.5 0.75 0
0.5 0.916667 0
0.416667 0.833333 0
0.583333 0.833333 0
0.833333 0.75 0
0.833333 0.916667 0
0.75 0.833333 0
0.916667 0.833333 0
-0.916667 -0.916667 0
-0.75 -0.916667 0
-0.916667 -0.75 0
-0.75 -0.75 0
-0.583333 -0.916667 0
-0.416667 -0.916667 0
-0.583333 -0.75 0
-0.416667 -0.75 0
-0.166667 0.0416667 0
-0.166667 0.125 0
-0.25 -0.75 0
-0.166667 0.208333 0
-0.166667 0.291667 0
-0.291667 0.166667 0
-0.208333 0.166667 0
0.25 -0.75 0
0.416667 -0.916667 0
0.583333 -0.916667 0
0.416667 -0.75 0
0.583333 -0.75 0
0.75 -0.916667 0
0.916667 -0.916667 0
0.75 -0.75 0
0.916667 -0.75 0
-0.916667 -0.583333 0
-0.75 -0.583333 0
-0.916667 -0.416667 0
-0.75 -0.416667 0
-0.583333 -0.583333 0
-0.416667 -0.583333 0
-0.583333 -0.416667 0
-0.416667 -0.416667 0
-0.25 -0.583333 0
-0.0833333 -0.583333 0
-0.25 -0.416667 0
-0.0833333 -0.416667 0
0.0833333 -0.583333 0
0.25 -0.583333 0
0.0833333 -0.416667 0
0.25 -0.416667 0
0.416667 -0.583333 0
0.583333 -0.583333 0
0.416667 -0.416667 0
0.583333 -0.416667 0
0.75 -0.583333 0
0.916667 -0.583333 0
0.75 -0.416667 0
0.916667 -0.416667 0
-0.125 0.166667 0
-0.75 -0.25 0
-0.0416667 0.166667 0
0.166667 0.0416667 0
-0.583333 -0.25 0
-0.416667 -0.25 0
-0.583333 -0.0833333 0
-0.416667 -0.0833333 0
-0.25 -0.25 0
-0.0833333 -0.25 0
-0.25 -0.0833333 0
-0.0833333 -0.0833333 0
0.0833333 -0.25 0
0.25 -0.25 0
0.0833333 -0.0833333 0
0.25 -0.0833333 0
0.416667 -0.25 0
0.583333 -0.25 0
0.416667 -0.0833333 0
0.583333 -0.0833333 0
0.75 -0.25 0
0.166667 0.125 0
0.166667 0.208333 0
0.166667 0.291667 0
0.0416667 0.166667 0
0.125 0.166667 0
0.208333 0.166667 0
-0.75 0.25 0
-0.583333 0.0833333 0
-0.416667 0.0833333 0
-0.583333 0.25 0
-0.416667 0.25 0
-0.25 0.0833333 0
-0.0833333 0.0833333 0
-0.25 0.25 0
-0.0833333 0.25 0
0.0833333 0.0833333 0
0.25 0.0833333 0
0.0833333 0.25 0
0.25 0.25 0
0.416667 0.0833333 0
0.583333 0.0833333 0
0.416667 0.25 0
0.583333 0.25 0
0.291667 0.166667 0
-0.0833333 -0.291667 0
0.75 0.25 0
-0.0833333 -0.208333 0
-0.916667 0.416667 0
-0.75 0.416667 0
-0.916667 0.583333 0
-0.75 0.583333 0
-0.583333 0.416667 0
-0.416667 0.416667 0
-0.583333 0.583333 0
-0.416667 0.583333 0
-0.25 0.416667 0
-0.0833333 0.416667 0
-0.25 0.583333 0
-0.0833333 0.583333 0
0.0833333 0.416667 0
0.25 0.416667 0
0.0833333 0.583333 0
0.25 0.583333 0
0.416667 0.416667 0
0.583333 0.416667 0
0.416667 0.583333 0
0.583333 0.583333 0
0.75 0.416667 0
0.916667 0.416667 0
0.75 0.583333 0
0.916667 0.583333 0
-0.916667 0.75 0
-0.75 0.75 0
-0.916667 0.916667 0
-0.75 0.916667 0
-0.583333 0.75 0
-0.416667 0.75 0
-0.583333 0.916667 0
-0.416667 0.916667 0
-0.25 0.75 0
-0.125 -0.25 0
-0.0416667 -0.25 0
-0.25 -0.125 0
-0.25 -0.0416667 0
0.25 0.75 0
-0.291667 -0.0833333 0
-0.208333 -0.0833333 0
0.416667 0.75 0
0.583333 0.75 0
0.416667 0.916667 0
0.583333 0.916667 0
0.75 0.75 0
0.916667 0.75 0
0.75 0.916667 0
0.916667 0.916667 0
-0.0833333 -0.125 0
-0.125 -0.0833333 0
0.0833333 -0.291667 0
0.0833333 -0.208333 0
0.0416667 -0.25 0
0.125 -0.25 0
0.0833333 -0.125 0
0.125 -0.0833333 0
0.25 -0.125 0
0.25 -0.0416667 0
0.208333 -0.0833333 0
0.291667 -0.0833333 0
-0.25 0.0416667 0
-0.25 0.125 0
-0.291667 0.0833333 0
-0.208333 0.0833333 0
-0.0833333 0.125 0
-0.125 0.0833333 0
-0.0833333 0.208333 0
-0.0833333 0.291667 0
-0.125 0.25 0
-0.0416667 0.25 0
0.0833333 0.125 0
0.125 0.0833333 0
0.25 0.0416667 0
0.25 0.125 0
0.208333 0.0833333 0
0.291667 0.0833333 0
0.0833333 0.208333 0
0.0833333 0.291667 0
0.0416667 0.25 0
0.125 0.25 0
-0.125 -0.291667 0
-0.0416667 -0.291667 0
-0.125 -0.208333 0
-0.0416667 -0.208333 0
-0.291667 -0.125 0
-0.208333 -0.125 0
-0.291667 -0.0416667 0
-0.208333 -0.0416667 0
-0.125 -0.125 0
0.0416667 -0.291667 0
0.125 -0.291667 0
0.0416667 -0.208333 0
0.125 -0.208333 0
0.125 -0.125 0
0.208333 -0.125 0
0.291667 -0.125 0
0.208333 -0.0416667 0
0.291667 -0.0416667 0
-0.291667 0.0416667 0
-0.208333 0.0416667 0
-0.291667 0.125 0
-0.208333 0.125 0
-0.125 0.125 0
-0.125 0.208333 0
-0.0416667 0.208333 0
-0.125 0.291667 0
-0.0416667 0.291667 0
0.125 0.125 0
0.208333 0.0416667 0
0.291667 0.0416667 0
0.208333 0.125 0
0.291667 0.125 0
0.0416667 0.208333 0
0.125 0.208333 0
0.0416667 0.291667 0
0.125 0.291667 0

CELLS 612 3060
4 2 53 135 54
4 53 3 56 135
4 135 56 10 66
4 3 55 136 56
4 55 4 58 136
4 56 136 68 10
4 14 75 145 76
4 76 145 88 21
4 145 78 22 88
4 85 20 87 150
4 86 150 98 26
4 150 87 27 98
4 21 88 151 89
4 88 22 91 151
4 89 151 101 28
4 26 98 156 99
4 98 27 100 156
4 156 100 34 111
4 118 38 121 165
4 119 165 129 44
4 165 121 45 129
4 38 120 166 121
4 121 166 130 45
4 166 123 46 130
4 0 169 481 171
4 169 49 337 481
4 171 481 339 50
4 481 337 133 339
4 49 170 482 337
4 170 1 175 482
4 337 482 340 133
4 482 175 52 340
4 50 339 483 172
4 339 133 338 483
4 172 483 195 7
4 483 338 62 195
4 133 340 484 338
4 340 52 176 484
4 338 484 196 62
4 484 176 8 196
4 1 173 485 175
4 173 51 341 485
4 175 485 343 52
4 485 341 134 343
4 51 174 486 341
4 174 2 179 486
4 341 486 344 134
4 486 179 54 344
4 52 343 487 176
4 343 134 342 487
4 176 487 199 8
4 487 342 64 199
4 134 344 488 342
4 344 54 180 488
4 342 488 200 64
4 488 180 9 200
4 54 347 491 180
4 347 135 346 491
4 180 491 203 9
4 491 346 66 203
4 136 352 496 350
4 352 58 188 496
4 350 496 208 68
4 496 188 11 208
4 4 185 497 187
4 185 57 353 497
4 187 497 355 58
4 497 353 137 355
4 57 186 498 353
4 186 5 191 498
4 353 498 356 137
4 498 191 60 356
4 58 355 499 188
4 355 137 354 499
4 188 499 211 11
4 499 354 70 211
4 137 356 500 354
4 356 60 192 500
4 354 500 212 70
4 500 192 12 212
4 5 189 501 191
4 189 59 357 501
4 191 501 359 60
4 501 357 138 359
4 59 190 502 357
4 190 6 193 502
4 357 502 360 138
4 502 193 61 360
4 60 359 503 192
4 359 138 358 503
4 192 503 215 12
4 503 358 72 215
4 138 360 504 358
4 360 61 194 504
4 358 504 216 72
4 504 194 13 216
4 7 195 505 197
4 195 62 361 505
4 197 505 363 63
4 505 361 139 363
4 62 196 506 361
4 196 8 201 506
4 361 506 364 139
4 506 201 65 364
4 63 363 507 198
4 363 139 362 507
4 198 507 221 14
4 507 362 75 221
4 139 364 508 362
4 364 65 202 508
4 362 508 222 75
4 508 202 15 222
4 8 199 509 201
4 199 64 365 509
4 201 509 367 65
4 509 365 140 367
4 64 200 510 365
4 200 9 205 510
4 365 510 368 140
4 510 205 67 368
4 65 367 511 202
4 367 140 366 511
4 202 511 225 15
4 511 366 77 225
4 140 368 512 366
4 368 67 206 512
4 366 512 226 77
4 512 206 16 226
4 9 203 513 205
4 203 66 369 513
4 205 513 371 67
4 513 369 141 371
4 66 204 514 369
4 204 10 209 514
4 369 514 372 141
4 514 209 69 372
4 67 371 515 206
4 371 141 370 515
4 206 515 229 16
4 515 370 79 229
4 141 372 516 370
4 372 69 210 516
4 370 516 230 79
4 516 210 17 230
4 10 207 517 209
4 207 68 373 517
4 209 517 375 69
4 517 373 142 375
4 68 208 518 373
4 208 11 213 518
4 373 518 376 142
4 518 213 71 376
4 69 375 519 210
4 375 142 374 519
4 210 519 233 17
4 519 374 81 233
4 142 376 520 374
4 376 71 214 520
4 374 520 234 81
4 520 214 18 234
4 11 211 521 213
4 211 70 377 521
4 213 521 379 71
4 521 377 143 379
4 70 212 522 377
4 212 12 217 522
4 377 522 380 143
4 522 217 73 380
4 71 379 523 214
4 379 143 378 523
4 214 523 237 18
4 523 378 83 237
4 143 380 524 378
4 380 73 218 524
4 378 524 238 83
4 524 218 19 238
4 12 215 525 217
4 215 72 381 525
4 217 525 383 73
4 525 381 144 383
4 72 216 526 381
4 216 13 219 526
4 381 526 384 144
4 526 219 74 384
4 73 383 527 218
4 383 144 382 527
4 218 527 241 19
4 527 382 85 241
4 144 384 528 382
4 384 74 220 528
4 382 528 242 85
4 528 220 20 242
4 75 222 530 385
4 222 15 227 530
4 385 530 388 145
4 530 227 78 388
4 15 225 533 227
4 225 77 389 533
4 227 533 391 78
4 533 389 146 391
4 77 226 534 389
4 226 16 231 534
4 389 534 392 146
4 534 231 80 392
4 78 391 535 228
4 391 146 390 535
4 228 535 251 22
4 535 390 90 251
4 146 392 536 390
4 392 80 232 536
4 390 536 252 90
4 536 232 23 252
4 16 229 537 231
4 229 79 393 537
4 231 537 395 80
4 537 393 147 395
4 396 82 236 540
4 394 540 256 92
4 540 236 24 256
4 81 234 542 397
4 234 18 239 542
4 397 542 400 148
4 542 239 84 400
4 82 399 543 236
4 236 543 259 24
4 543 398 94 259
4 18 237 545 239
4 237 83 401 545
4 239 545 403 84
4 545 401 149 403
4 83 238 546 401
4 238 19 243 546
4 401 546 404 149
4 546 243 86 404
4 84 403 547 240
4 403 149 402 547
4 240 547 263 25
4 547 402 96 263
4 149 404 548 402
4 404 86 244 548
4 402 548 264 96
4 548 244 26 264
4 19 241 549 243
4 241 85 405 549
4 243 549 407 86
4 549 405 150 407
4 151 412 556 410
4 412 91 254 556
4 410 556 274 101
4 556 254 29 274
4 22 251 557 253
4 251 90 413 557
4 253 557 415 91
4 557 413 152 415
4 90 252 558 413
4 252 23 257 558
4 413 558 416 152
4 558 257 93 416
4 91 415 559 254
4 415 152 414 559
4 254 559 277 29
4 559 414 103 277
4 152 416 560 414
4 416 93 258 560
4 414 560 278 103
4 560 258 30 278
4 92 256 562 417
4 256 24 261 562
4 562 261 95 420
4 93 419 563 258
4 419 153 418 563
4 258 563 281 30
4 563 418 105 281
4 24 259 565 261
4 259 94 421 565
4 261 565 423 95
4 154 424 568 422
4 424 97 266 568
4 422 568 286 107
4 568 266 32 286
4 25 263 569 265
4 263 96 425 569
4 265 569 427 97
4 569 425 155 427
4 96 264 570 425
4 264 26 269 570
4 425 570 428 155
4 570 269 99 428
4 97 427 571 266
4 427 155 426 571
4 266 571 289 32
4 571 426 109 289
4 155 428 572 426
4 428 99 270 572
4 426 572 290 109
4 572 270 33 290
4 99 431 575 270
4 431 156 430 575
4 270 575 293 33
4 575 430 111 293
4 28 273 577 275
4 273 101 433 577
4 275 577 435 102
4 577 433 157 435
4 101 274 578 433
4 274 29 279 578
4 433 578 436 157
4 578 279 104 436
4 102 435 579 276
4 435 157 434 579
4 276 579 299 35
4 579 434 114 299
4 157 436 580 434
4 436 104 280 580
4 434 580 300 114
4 580 280 36 300
4 29 277 581 279
4 277 103 437 581
4 279 581 439 104
4 581 437 158 439
4 103 278 582 437
4 278 30 283 582
4 437 582 440 158
4 582 283 106 440
4 104 439 583 280
4 439 158 438 583
4 280 583 303 36
4 583 438 116 303
4 158 440 584 438
4 440 106 284 584
4 438 584 304 116
4 584 284 37 304
4 30 281 585 283
4 281 105 441 585
4 283 585 443 106
4 585 441 159 443
4 105 282 586 441
4 282 31 287 586
4 441 586 444 159
4 586 287 108 444
4 106 443 587 284
4 443 159 442 587
4 284 587 307 37
4 587 442 118 307
4 159 444 588 442
4 444 108 288 588
4 442 588 308 118
4 588 288 38 308
4 31 285 589 287
4 285 107 445 589
4 287 589 447 108
4 589 445 160 447
4 107 286 590 445
4 286 32 291 590
4 445 590 448 160
4 590 291 110 448
4 108 447 591 288
4 447 160 446 591
4 288 591 311 38
4 591 446 120 311
4 160 448 592 446
4 448 110 292 592
4 446 592 312 120
4 592 292 39 312
4 32 289 593 291
4 289 109 449 593
4 291 593 451 110
4 593 449 161 451
4 109 290 594 449
4 290 33 295 594
4 449 594 452 161
4 594 295 112 452
4 110 451 595 292
4 451 161 450 595
4 292 595 315 39
4 595 450 122 315
4 161 452 596 450
4 452 112 296 596
4 450 596 316 122
4 596 296 40 316
4 33 293 597 295
4 293 111 453 597
4 295 597 455 112
4 597 453 162 455
4 111 294 598 453
4 294 34 297 598
4 453 598 456 162
4 598 297 113 456
4 112 455 599 296
4 455 162 454 599
4 296 599 319 40
4 599 454 124 319
4 162 456 600 454
4 456 113 298 600
4 454 600 320 124
4 600 298 41 320
4 35 299 601 301
4 299 114 457 601
4 301 601 459 115
4 601 457 163 459
4 114 300 602 457
4 300 36 305 602
4 457 602 460 163
4 602 305 117 460
4 115 459 603 302
4 459 163 458 603
4 302 603 325 42
4 603 458 127 325
4 163 460 604 458
4 460 117 306 604
4 458 604 326 127
4 604 306 43 326
4 36 303 605 305
4 303 116 461 605
4 305 605 463 117
4 605 461 164 463
4 116 304 606 461
4 304 37 309 606
4 461 606 464 164
4 606 309 119 464
4 117 463 607 306
4 463 164 462 607
4 306 607 327 43
4 607 462 128 327
4 164 464 608 462
4 464 119 310 608
4 462 608 328 128
4 608 310 44 328
4 37 307 609 309
4 307 118 465 609
4 309 609 467 119
4 609 465 165 467
4 120 312 614 469
4 312 39 317 614
4 469 614 472 166
4 614 317 123 472
4 39 315 617 317
4 315 122 473 617
4 317 617 475 123
4 617 473 167 475
4 122 316 618 473
4 316 40 321 618
4 473 618 476 167
4 618 321 125 476
4 123 475 619 318
4 475 167 474 619
4 318 619 333 46
4 619 474 131 333
4 167 476 620 474
4 476 125 322 620
4 474 620 334 131
4 620 322 47 334
4 40 319 621 321
4 319 124 477 621
4 321 621 479 125
4 621 477 168 479
4 124 320 622 477
4 320 41 323 622
4 477 622 480 168
4 622 323 126 480
4 125 479 623 322
4 479 168 478 623
4 322 623 335 47
4 623 478 132 335
4 168 480 624 478
4 480 126 324 624
4 478 624 336 132
4 624 324 48 336
4 79 177 657 345
4 177 230 574 657
4 345 657 610 393
4 657 574 538 610
4 230 178 658 574
4 178 17 223 658
4 574 658 611 538
4 658 223 235 611
4 393 610 659 348
4 610 538 576 659
4 348 659 406 147
4 659 576 396 406
4 538 611 660 576
4 611 235 224 660
4 576 660 408 396
4 660 224 82 408
4 80 386 661 181
4 386 395 612 661
4 181 661 615 232
4 661 612 539 615
4 395 387 662 612
4 387 147 349 662
4 612 662 616 539
4 662 349 394 616
4 232 615 663 182
4 615 539 613 663
4 182 663 247 23
4 663 613 255 247
4 539 616 664 613
4 616 394 351 664
4 613 664 248 255
4 664 351 92 248
4 147 406 665 349
4 406 396 625 665
4 349 665 626 394
4 665 625 540 626
4 17 183 666 223
4 183 233 627 666
4 223 666 629 235
4 666 627 541 629
4 233 184 667 627
4 184 81 409 667
4 627 667 630 541
4 667 409 397 630
4 235 629 668 224
4 629 541 628 668
4 224 668 466 82
4 668 628 399 466
4 541 630 669 628
4 630 397 411 669
4 628 669 468 399
4 669 411 148 468
4 399 468 670 631
4 468 148 429 670
4 631 670 632 543
4 670 429 398 632
4 148 470 671 429
4 470 400 633 671
4 429 671 635 398
4 671 633 544 635
4 400 471 672 633
4 471 84 245 672
4 633 672 636 544
4 672 245 240 636
4 398 635 673 432
4 635 544 634 673
4 432 673 267 94
4 673 634 260 267
4 544 636 674 634
4 636 240 246 674
4 634 674 268 260
4 674 246 25 268
4 23 247 675 249
4 247 255 637 675
4 249 675 639 257
4 675 637 561 639
4 255 248 676 637
4 248 92 489 676
4 637 676 640 561
4 676 489 417 640
4 257 639 677 250
4 639 561 638 677
4 250 677 494 93
4 677 638 419 494
4 561 640 678 638
4 640 417 490 678
4 638 678 495 419
4 678 490 153 495
4 417 642 679 490
4 642 562 641 679
4 490 679 529 153
4 679 641 420 529
4 153 529 680 492
4 529 420 643 680
4 492 680 645 418
4 680 643 564 645
4 420 531 681 643
4 531 95 271 681
4 643 681 646 564
4 681 271 262 646
4 418 645 682 493
4 645 564 644 682
4 493 682 329 105
4 682 644 282 329
4 564 646 683 644
4 646 262 272 683
4 644 683 330 282
4 683 272 31 330
4 565 648 684 647
4 648 421 550 684
4 647 684 554 423
4 684 550 154 554
4 94 267 685 532
4 267 260 649 685
4 532 685 651 421
4 685 649 566 651
4 260 268 686 649
4 268 25 313 686
4 649 686 652 566
4 686 313 265 652
4 421 651 687 550
4 651 566 650 687
4 550 687 555 154
4 687 650 424 555
4 566 652 688 650
4 652 265 314 688
4 650 688 573 424
4 688 314 97 573
4 95 553 689 271
4 553 423 653 689
4 271 689 655 262
4 689 653 567 655
4 423 554 690 653
4 554 154 551 690
4 653 690 656 567
4 690 551 422 656
4 262 655 691 272
4 655 567 654 691
4 272 691 331 31
4 691 654 285 331
4 567 656 692 654
4 656 422 552 692
4 654 692 332 285
4 692 552 107 332

CELL_TYPES 612
9 9 9 9 9 9 9 9 9 9 9 9 9 9 9 9 9 9 9 9 9 9 9 9 9 9 9 9 9 9 9 9 9 9 9 9 9 9 9 9 9 9 9 9 9 9 9 9 9 9 9 9 9 9 9 9 9 9 9 9 9 9 9 9 9 9 9 9 9 9 9 9 9 9 9 9 9 9 9 9 9 9 9 9 9 9 9 9 9 9 9 9 9 9 9 9 9 9 9 9 9 9 9 9 9 9 9 9 9 9 9 9 9 9 9 9 9 9 9 9 9 9 9 9 9 9 9 9 9 9 9 9 9 9 9 9 9 9 9 9 9 9 9 9 9 9 9 9 9 9 9 9 9 9 9 9 9 9 9 9 9 9 9 9 9 9 9 9 9 9 9 9 9 9 9 9 9 9 9 9 9 9 9 9 9 9 9 9 9 9 9 9 9 9 9 9 9 9 9 9 9 9 9 9 9 9 9 9 9 9 9 9 9 9 9 9 9 9 9 9 9 9 9 9 9 9 9 9 9 9 9 9 9 9 9 9 9 9 9 9 9 9 9 9 9 9 9 9 9 9 9 9 9 9 9 9 9 9 9 9 9 9 9 9 9 9 9 9 9 9 9 9 9 9 9 9 9 9 9 9 9 9 9 9 9 9 9 9 9 9 9 9 9 9 9 9 9 9 9 9 9 9 9 9 9 9 9 9 9 9 9 9 9 9 9 9 9 9 9 9 9 9 9 9 9 9 9 9 9 9 9 9 9 9 9 9 9 9 9 9 9 9 9 9 9 9 9 9 9 9 9 9 9 9 9 9 9 9 9 9 9 9 9 9 9 9 9 9 9 9 9 9 9 9 9 9 9 9 9 9 9 9 9 9 9 9 9 9 9 9 9 9 9 9 9 9 9 9 9 9 9 9 9 9 9 9 9 9 9 9 9 9 9 9 9 9 9 9 9 9 9 9 9 9 9 9 9 9 9 9 9 9 9 9 9 9 9 9 9 9 9 9 9 9 9 9 9 9 9 9 9 9 9 9 9 9 9 9 9 9 9 9 9 9 9 9 9 9 9 9 9 9 9 9 9 9 9 9 9 9 9 9 9 9 9 9 9 9 9 9 9 9 9 9 9 9 9 9 9 9 9 9 9 9 9 9 9 9 9 9 9 9 9 9 9 9 9 9 9 9 9 9 9 9 9 9 9 9 9 9 9 9 9 9 9 9 9 9 9 9 9 9 9 9 9 9 9 9 9 9 9 9 9 9 9 9 9 9 9 9 9 9 9 9 9 9 9 9 9 9 9 9 9 9 9 9 9 9 9 9 9 9 9 9 9 9 9 9 9 9 9 9 9 9 9 9 9 9 9 9 9 9 9 9 9 9 9 9 9 9 9 9 



CELL_DATA 612
SCALARS MaterialID int 1
LOOKUP_TABLE default
0 0 0 0 0 0 0 0 0 0 0 0 0 0 0 0 0 0 0 0 0 0 0 0 0 0 0 0 0 0 0 0 0 0 0 0 0 0 0 0 0 0 0 0 0 0 0 0 0 0 0 0 0 0 0 0 0 0 0 0 0 0 0 0 0 0 0 0 0 0 0 0 0 0 0 0 0 0 0 0 0 0 0 0 0 0 0 0 0 0 0 0 0 0 0 0 0 0 0 0 0 0 0 0 0 0 0 0 0 0 0 0 0 0 0 0 0 0 0 0 0 0 0 0 0 0 0 0 0 0 0 0 0 0 0 0 0 0 0 0 0 0 0 0 0 0 0 0 0 0 0 0 0 0 0 0 0 0 0 0 0 0 0 0 0 0 0 0 0 0 0 0 0 0 0 0 0 0 0 0 0 0 0 0 0 0 0 0 0 0 0 0 0 0 0 0 0 0 0 0 0 0 0 0 0 0 0 0 0 0 0 0 0 0 0 0 0 0 0 0 0 0 0 0 0 0 0 0 0 0 0 0 0 0 0 0 0 0 0 0 0 0 0 0 0 0 0 0 0 0 0 0 0 0 0 0 0 0 0 0 0 0 0 0 0 0 0 0 0 0 0 0 0 0 0 0 0 0 0 0 0 0 0 0 0 0 0 0 0 0 0 0 0 0 0 0 0 0 0 0 0 0 0 0 0 0 0 0 0 0 0 0 0 0 0 0 0 0 0 0 0 0 0 0 0 0 0 0 0 0 0 0 0 0 0 0 0 0 0 0 0 0 0 0 0 0 0 0 0 0 0 0 0 0 0 0 0 0 0 0 0 0 0 0 0 0 0 0 0 0 0 0 0 0 0 0 0 0 0 0 0 0 0 0 0 0 0 0 0 0 0 0 0 0 0 0 0 0 0 0 0 0 0 0 0 0 0 0 0 0 0 0 0 0 0 0 0 0 0 0 0 0 0 0 0 0 0 0 0 0 0 0 0 0 0 0 0 0 0 0 0 0 0 0 0 0 0 0 0 0 0 0 0 0 0 0 0 0 0 0 0 0 0 0 0 0 0 0 0 0 0 0 0 0 0 0 0 0 0 0 0 0 0 0 0 0 0 0 0 0 0 0 0 0 0 0 0 0 0 0 0 0 0 0 0 0 0 0 0 0 0 0 0 0 0 0 0 0 0 0 0 0 0 0 0 0 0 0 0 0 0 0 0 0 0 0 0 0 0 0 0 0 0 0 0 0 0 0 0 0 0 0 0 0 0 0 0 0 0 0 0 0 0 0 0 0 0 0 0 0 0 0 0 0 0 0 0 0 0 0 0 0 0 0 0 0 0 0 0 0 0 0 0 0 0 0 0 0 0 0 0 0 0 0 0 0 0 0 0 0 0 0 



SCALARS ManifoldID int 1
LOOKUP_TABLE default
-1 -1 -1 -1 -1 -1 -1 -1 -1 -1 -1 -1 -1 -1 -1 -1 -1 -1 -1 -1 -1 -1 -1 -1 -1 -1 -1 -1 -1 -1 -1 -1 -1 -1 -1 -1 -1 -1 -1 -1 -1 -1 -1 -1 -1 -1 -1 -1 -1 -1 -1 -1 -1 -1 -1 -1 -1 -1 -1 -1 -1 -1 -1 -1 -1 -1 -1 -1 -1 -1 -1 -1 -1 -1 -1 -1 -1 -1 -1 -1 -1 -1 -1 -1 -1 -1 -1 -1 -1 -1 -1 -1 -1 -1 -1 -1 -1 -1 -1 -1 -1 -1 -1 -1 -1 -1 -1 -1 -1 -1 -1 -1 -1 -1 -1 -1 -1 -1 -1 -1 -1 -1 -1 -1 -1 -1 -1 -1 -1 -1 -1 -1 -1 -1 -1 -1 -1 -1 -1 -1 -1 -1 -1 -1 -1 -1 -1 -1 -1 -1 -1 -1 -1 -1 -1 -1 -1 -1 -1 -1 -1 -1 -1 -1 -1 -1 -1 -1 -1 -1 -1 -1 -1 -1 -1 -1 -1 -1 -1 -1 -1 -1 -1 -1 -1 -1 -1 -1 -1 -1 -1 -1 -1 -1 -1 -1 -1 -1 -1 -1 -1 -1 -1 -1 -1 -1 -1 -1 -1 -1 -1 -1 -1 -1 -1 -1 -1 -1 -1 -1 -1 -1 -1 -1 -1 -1 -1 -1 -1 -1 -1 -1 -1 -1 -1 -1 -1 -1 -1 -1 -1 -1 -1 -1 -1 -1 -1 -1 -1 -1 -1 -1 -1 -1 -1 -1 -1 -1 -1 -1 -1 -1 -1 -1 -1 -1 -1 -1 -1 -1 -1 -1 -1 -1 -1 -1 -1 -1 -1 -1 -1 -1 -1 -1 -1 -1 -1 -1 -1 -1 -1 -1 -1 -1 -1 -1 -1 -1 -1 -1 -1 -1 -1 -1 -1 -1 -1 -1 -1 -1 -1 -1 -1 -1 -1 -1 -1 -1 -1 -1 -1 -1 -1 -1 -1 -1 -1 -1 -1 -1 -1 -1 -1 -1 -1 -1 -1 -1 -1 -1 -1 -1 -1 -1 -1 -1 -1 -1 -1 -1 -1 -1 -1 -1 -1 -1 -1 -1 -1 -1 -1 -1 -1 -1 -1 -1 -1 -1 -1 -1 -1 -1 -1 -1 -1 -1 -1 -1 -1 -1 -1 -1 -1 -1 -1 -1 -1 -1 -1 -1 -1 -1 -1 -1 -1 -1 -1 -1 -1 -1 -1 -1 -1 -1 -1 -1 -1 -1 -1 -1 -1 -1 -1 -1 -1 -1 -1 -1 -1 -1 -1 -1 -1 -1 -1 -1 -1 -1 -1 -1 -1 -1 -1 -1 -1 -1 -1 -1 -1 -1 -1 -1 -1 -1 -1 -1 -1 -1 -1 -1 -1 -1 -1 -1 -1 -1 -1 -1 -1 -1 -1 -1 -1 -1 -1 -1 -1 -1 -1 -1 -1 -1 -1 -1 -1 -1 -1 -1 -1 -1 -1 -1 -1 -1 -1 -1 -1 -1 -1 -1 -1 -1 -1 -1 -1 -1 -1 -1 -1 -1 -1 -1 -1 -1 -1 -1 -1 -1 -1 -1 -1 -1 -1 -1 -1 -1 -1 -1 -1 -1 -1 -1 -1 -1 -1 -1 -1 -1 -1 -1 -1 -1 -1 -1 -1 -1 -1 -1 -1 -1 -1 -1 -1 -1 -1 -1 -1 -1 -1 -1 -1 -1 -1 -1 -1 -1 -1 -1 -1 -1 -1 -1 -1 -1 -1 -1 -1 -1 -1 -1 -1 -1 -1 -1 -1 -1 -1 -1 -1 -1 -1 -1 -1 -1 -1 -1 -1 -1 -1 -1 -1 -1 -1 -1 -1 -1 -1 -1 -1 -1 -1 -1 -1 -1 -1 -1 -1 -1 -1 -1 -1 -1 


